----- GAMESS execution script 'rungms' -----
This job is running on host GET-04
under operating system Linux at Sat Nov 14 13:20:47 BRST 2015
Available scratch disk space (Kbyte units) at beginning of the job is
Filesystem           1K-blocks      Used Available Use% Mounted on
/dev/md1             836273872 167545824 626247820  22% /
GAMESS temporary binary files will be written to /home/carlos/scr/gamess
GAMESS supplementary output files will be written to /home/carlos/scr/gamess
Copying input file ethane.inp to your run's scratch directory...
cp ethane.inp /home/carlos/scr/gamess/ethane.F05
unset echo
/usr/local/gamess_2013_May_R1/ddikick.x /usr/local/gamess_2013_May_R1/gamess.00.x ethane -ddi 1 8 localhost:cpus=8 -scr /home/carlos/scr/gamess

 Distributed Data Interface kickoff program.
 Initiating 8 compute processes on 1 nodes to run the following command:
 /usr/local/gamess_2013_May_R1/gamess.00.x ethane 

          ******************************************************
          *         GAMESS VERSION =  1 MAY 2013 (R1)          *
          *             FROM IOWA STATE UNIVERSITY             *
          * M.W.SCHMIDT, K.K.BALDRIDGE, J.A.BOATZ, S.T.ELBERT, *
          *   M.S.GORDON, J.H.JENSEN, S.KOSEKI, N.MATSUNAGA,   *
          *          K.A.NGUYEN, S.J.SU, T.L.WINDUS,           *
          *       TOGETHER WITH M.DUPUIS, J.A.MONTGOMERY       *
          *         J.COMPUT.CHEM.  14, 1347-1363(1993)        *
          **************** 64 BIT INTEL VERSION ****************

  SINCE 1993, STUDENTS AND POSTDOCS WORKING AT IOWA STATE UNIVERSITY
  AND ALSO IN THEIR VARIOUS JOBS AFTER LEAVING ISU HAVE MADE IMPORTANT
  CONTRIBUTIONS TO THE CODE:
     IVANA ADAMOVIC, CHRISTINE AIKENS, YURI ALEXEEV, POOJA ARORA,
     ANDREY ASADCHEV, ROB BELL, PRADIPTA BANDYOPADHYAY, JONATHAN BENTZ,
     BRETT BODE, GALINA CHABAN, WEI CHEN, CHEOL HO CHOI, PAUL DAY,
     ALBERT DEFUSCO, TIM DUDLEY, DMITRI FEDOROV, GRAHAM FLETCHER,
     MARK FREITAG, KURT GLAESEMANN, DAN KEMP, GRANT MERRILL,
     NORIYUKI MINEZAWA, JONATHAN MULLIN, TAKESHI NAGATA,
     SEAN NEDD, HEATHER NETZLOFF, BOSILJKA NJEGIC, RYAN OLSON, MIKE PAK,
     JIM SHOEMAKER, LYUDMILA SLIPCHENKO, SAROM SOK, JIE SONG,
     TETSUYA TAKETSUGU, SIMON WEBB, SOOHAENG YOO, FEDERICO ZAHARIEV

  ADDITIONAL CODE HAS BEEN PROVIDED BY COLLABORATORS IN OTHER GROUPS:
     IOWA STATE UNIVERSITY:
          JOE IVANIC, LAIMUTIS BYTAUTAS, KLAUS RUEDENBERG
     UNIVERSITY OF TOKYO: KIMIHIKO HIRAO, TAKAHITO NAKAJIMA,
          TAKAO TSUNEDA, MUNEAKI KAMIYA, SUSUMU YANAGISAWA,
          KIYOSHI YAGI, MAHITO CHIBA, SEIKEN TOKURA, NAOAKI KAWAKAMI
     UNIVERSITY OF AARHUS: FRANK JENSEN
     UNIVERSITY OF IOWA: VISVALDAS KAIRYS, HUI LI
     NATIONAL INST. OF STANDARDS AND TECHNOLOGY: WALT STEVENS, DAVID GARMER
     UNIVERSITY OF PISA: BENEDETTA MENNUCCI, JACOPO TOMASI
     UNIVERSITY OF MEMPHIS: HENRY KURTZ, PRAKASHAN KORAMBATH
     UNIVERSITY OF ALBERTA: TOBY ZENG, MARIUSZ KLOBUKOWSKI
     UNIVERSITY OF NEW ENGLAND: MARK SPACKMAN
     MIE UNIVERSITY: HIROAKI UMEDA
     MICHIGAN STATE UNIVERSITY:
          KAROL KOWALSKI, MARTA WLOCH, JEFFREY GOUR, JESSE LUTZ,
          WEI LI, PIOTR PIECUCH
     UNIVERSITY OF SILESIA: MONIKA MUSIAL, STANISLAW KUCHARSKI
     FACULTES UNIVERSITAIRES NOTRE-DAME DE LA PAIX:
          OLIVIER QUINET, BENOIT CHAMPAGNE
     UNIVERSITY OF CALIFORNIA - SANTA BARBARA: BERNARD KIRTMAN
     INSTITUTE FOR MOLECULAR SCIENCE:
          KAZUYA ISHIMURA, MICHIO KATOUDA, AND SHIGERU NAGASE
     UNIVERSITY OF NOTRE DAME: DAN CHIPMAN
     KYUSHU UNIVERSITY:
          HARUYUKI NAKANO,
          FENG LONG GU, JACEK KORCHOWIEC, MARCIN MAKOWSKI, AND YURIKO AOKI,
          HIROTOSHI MORI AND EISAKU MIYOSHI
     PENNSYLVANIA STATE UNIVERSITY:
          TZVETELIN IORDANOV, CHET SWALINA, JONATHAN SKONE,
          SHARON HAMMES-SCHIFFER
     WASEDA UNIVERSITY:
          MASATO KOBAYASHI, TOMOKO AKAMA, TSUGUKI TOUMA,
          TAKESHI YOSHIKAWA, YASUHIRO IKABATA, HIROMI NAKAI
     NANJING UNIVERSITY: SHUHUA LI
     UNIVERSITY OF NEBRASKA:
          PEIFENG SU, DEJUN SI, NANDUN THELLAMUREGE, YALI WANG, HUI LI
     UNIVERSITY OF ZURICH:
          ROBERTO PEVERATI, KIM BALDRIDGE
     N. COPERNICUS UNIVERSITY AND JACKSON STATE UNIVERSITY:
          MARIA BARYSZ


 PARALLEL VERSION RUNNING ON     8 PROCESSORS IN     1 NODES.

 EXECUTION OF GAMESS BEGUN Sat Nov 14 13:20:47 2015

            ECHO OF THE FIRST FEW INPUT CARDS -
 INPUT CARD> $BASIS GBASIS=STO NGAUSS=3 $END                                                
 INPUT CARD> $CONTRL SCFTYP=RHF RUNTYP=HESSIAN $END                                         
 INPUT CARD> $FORCE METHOD=ANALYTIC VIBANL=.TRUE. $END                                      
 INPUT CARD> $DATA                                                                          
 INPUT CARD>Ethane - Frequencies                                                            
 INPUT CARD>C1                                                                              
 INPUT CARD>C           6.0  -4.7025327619   1.5336094192  -0.0000016247                    
 INPUT CARD>C           6.0  -3.1649949477   1.5570315949  -0.0000012710                    
 INPUT CARD>H           1.0  -5.0973762293   2.2140232028   0.7487921774                    
 INPUT CARD>H           1.0  -5.0718517092   0.5362362926   0.2199734034                    
 INPUT CARD>H           1.0  -5.0915809430   1.8330976803  -0.9687632933                    
 INPUT CARD>H           1.0  -2.7759397230   1.2575436949   0.9687587010                    
 INPUT CARD>H           1.0  -2.7956690937   2.5544033302  -0.2199696653                    
 INPUT CARD>H           1.0  -2.7701445923   0.8766147849  -0.7487884274                    
 INPUT CARD> $END                                                                           
    1000000 WORDS OF MEMORY AVAILABLE

     BASIS OPTIONS
     -------------
     GBASIS=STO          IGAUSS=       3      POLAR=NONE    
     NDFUNC=       0     NFFUNC=       0     DIFFSP=       F
     NPFUNC=       0      DIFFS=       F     BASNAM=        


     RUN TITLE
     ---------
 Ethane - Frequencies                                                            

 THE POINT GROUP OF THE MOLECULE IS C1      
 THE ORDER OF THE PRINCIPAL AXIS IS     0

 ATOM      ATOMIC                      COORDINATES (BOHR)
           CHARGE         X                   Y                   Z
 C           6.0    -8.8864983683        2.8981015745       -0.0000030702
 C           6.0    -5.9809732037        2.9423630686       -0.0000024018
 H           1.0    -9.6326443297        4.1838971838        1.4150120370
 H           1.0    -9.5844099807        1.0133396577        0.4156894570
 H           1.0    -9.6216928266        3.4640523245       -1.8306971713
 H           1.0    -5.2457654349        2.3764130009        1.8306884931
 H           1.0    -5.2830485394        4.8271223562       -0.4156823930
 H           1.0    -5.2348142258        1.6565617402       -1.4150049506

          INTERNUCLEAR DISTANCES (ANGS.)
          ------------------------------

                1 C          2 C          3 H          4 H          5 H     

   1 C       0.0000000    1.5377162 *  1.0860739 *  1.0860657 *  1.0860713 *
   2 C       1.5377162 *  0.0000000    2.1740347 *  2.1740549 *  2.1740391 *
   3 H       1.0860739 *  2.1740347 *  0.0000000    1.7593379 *  1.7592995 *
   4 H       1.0860657 *  2.1740549 *  1.7593379 *  0.0000000    1.7593560 *
   5 H       1.0860713 *  2.1740391 *  1.7592995 *  1.7593560 *  0.0000000  
   6 H       2.1740445 *  1.0860722 *  2.5203781 *  2.5203523 *  3.0736701  
   7 H       2.1740596 *  1.0860654 *  2.5203599 *  3.0736876    2.5203541 *
   8 H       2.1740395 *  1.0860737 *  3.0736649    2.5203596 *  2.5203800 *

                6 H          7 H          8 H     

   1 C       2.1740445 *  2.1740596 *  2.1740395 *
   2 C       1.0860722 *  1.0860654 *  1.0860737 *
   3 H       2.5203781 *  2.5203599 *  3.0736649  
   4 H       2.5203523 *  3.0736876    2.5203596 *
   5 H       3.0736701    2.5203541 *  2.5203800 *
   6 H       0.0000000    1.7593491 *  1.7592921 *
   7 H       1.7593491 *  0.0000000    1.7593394 *
   8 H       1.7592921 *  1.7593394 *  0.0000000  

  * ... LESS THAN  3.000


     ATOMIC BASIS SET
     ----------------
 THE CONTRACTED PRIMITIVE FUNCTIONS HAVE BEEN UNNORMALIZED
 THE CONTRACTED BASIS FUNCTIONS ARE NOW NORMALIZED TO UNITY

  SHELL TYPE  PRIMITIVE        EXPONENT          CONTRACTION COEFFICIENT(S)

 C         

      1   S       1            71.6168373    0.154328967295
      1   S       2            13.0450963    0.535328142282
      1   S       3             3.5305122    0.444634542185

      2   L       4             2.9412494   -0.099967229187    0.155916274999
      2   L       5             0.6834831    0.399512826089    0.607683718598
      2   L       6             0.2222899    0.700115468880    0.391957393099

 C         

      3   S       7            71.6168373    0.154328967295
      3   S       8            13.0450963    0.535328142282
      3   S       9             3.5305122    0.444634542185

      4   L      10             2.9412494   -0.099967229187    0.155916274999
      4   L      11             0.6834831    0.399512826089    0.607683718598
      4   L      12             0.2222899    0.700115468880    0.391957393099

 H         

      5   S      13             3.4252509    0.154328967295
      5   S      14             0.6239137    0.535328142282
      5   S      15             0.1688554    0.444634542185

 H         

      6   S      16             3.4252509    0.154328967295
      6   S      17             0.6239137    0.535328142282
      6   S      18             0.1688554    0.444634542185

 H         

      7   S      19             3.4252509    0.154328967295
      7   S      20             0.6239137    0.535328142282
      7   S      21             0.1688554    0.444634542185

 H         

      8   S      22             3.4252509    0.154328967295
      8   S      23             0.6239137    0.535328142282
      8   S      24             0.1688554    0.444634542185

 H         

      9   S      25             3.4252509    0.154328967295
      9   S      26             0.6239137    0.535328142282
      9   S      27             0.1688554    0.444634542185

 H         

     10   S      28             3.4252509    0.154328967295
     10   S      29             0.6239137    0.535328142282
     10   S      30             0.1688554    0.444634542185

 TOTAL NUMBER OF BASIS SET SHELLS             =   10
 NUMBER OF CARTESIAN GAUSSIAN BASIS FUNCTIONS =   16
 NUMBER OF ELECTRONS                          =   18
 CHARGE OF MOLECULE                           =    0
 SPIN MULTIPLICITY                            =    1
 NUMBER OF OCCUPIED ORBITALS (ALPHA)          =    9
 NUMBER OF OCCUPIED ORBITALS (BETA )          =    9
 TOTAL NUMBER OF ATOMS                        =    8
 THE NUCLEAR REPULSION ENERGY IS       42.2730006960

     $CONTRL OPTIONS
     ---------------
 SCFTYP=RHF          RUNTYP=HESSIAN      EXETYP=RUN     
 MPLEVL=       0     CITYP =NONE         CCTYP =NONE         VBTYP =NONE    
 DFTTYP=NONE         TDDFT =NONE    
 MULT  =       1     ICHARG=       0     NZVAR =       0     COORD =UNIQUE  
 PP    =NONE         RELWFN=NONE         LOCAL =NONE         NUMGRD=       F
 ISPHER=      -1     NOSYM =       0     MAXIT =      30     UNITS =ANGS    
 PLTORB=       F     MOLPLT=       F     AIMPAC=       F     FRIEND=        
 NPRINT=       7     IREST =       0     GEOM  =INPUT   
 NORMF =       0     NORMP =       0     ITOL  =      20     ICUT  =       9
 INTTYP=BEST         GRDTYP=BEST         QMTTOL= 1.0E-06

     $SYSTEM OPTIONS
     ---------------
  REPLICATED MEMORY=     1000000 WORDS (ON EVERY NODE).
 DISTRIBUTED MEMDDI=           0 MILLION WORDS IN AGGREGATE,
 MEMDDI DISTRIBUTED OVER   8 PROCESSORS IS           0 WORDS/PROCESSOR.
 TOTAL MEMORY REQUESTED ON EACH PROCESSOR=     1000000 WORDS.
 TIMLIM=      525600.00 MINUTES, OR     365.0 DAYS.
 PARALL= T  BALTYP=  DLB     KDIAG=    0  COREFL= F
 MXSEQ2=     300 MXSEQ3=     150

          ----------------
          PROPERTIES INPUT
          ----------------

     MOMENTS            FIELD           POTENTIAL          DENSITY
 IEMOM =       1   IEFLD =       0   IEPOT =       0   IEDEN =       0
 WHERE =COMASS     WHERE =NUCLEI     WHERE =NUCLEI     WHERE =NUCLEI  
 OUTPUT=BOTH       OUTPUT=BOTH       OUTPUT=BOTH       OUTPUT=BOTH    
 IEMINT=       0   IEFINT=       0                     IEDINT=       0
                                                       MORB  =       0
          EXTRAPOLATION IN EFFECT
          SOSCF IN EFFECT
 ORBITAL PRINTING OPTION: NPREO=     1    16     2     1

     -------------------------------
     INTEGRAL TRANSFORMATION OPTIONS
     -------------------------------
     NWORD  =            0
     CUTOFF = 1.0E-09     MPTRAN =       0
     DIRTRF =       F     AOINTS =DUP     

          ----------------------
          INTEGRAL INPUT OPTIONS
          ----------------------
 NOPK  =       1 NORDER=       0 SCHWRZ=       T

     ------------------------------------------
     THE POINT GROUP IS C1 , NAXIS= 0, ORDER= 1
     ------------------------------------------

     DIMENSIONS OF THE SYMMETRY SUBSPACES ARE
 A   =   16

 ..... DONE SETTING UP THE RUN .....
 CPU     0: STEP CPU TIME=     0.01 TOTAL CPU TIME=        0.0 (    0.0 MIN)
 TOTAL WALL CLOCK TIME=        0.0 SECONDS, CPU UTILIZATION IS  50.00%

     ---------------------------------
     HESSIAN MATRIX CONTROL PARAMETERS
     ---------------------------------
     METHOD=ANALYTIC   NVIB  =       2   VIBSIZ= 0.01000
     RDHESS=       F   PURIFY=       F   PRTIFC=       F
     VIBANL=       T   DECOMP=       F   PROJCT=       F
     SCLFAC= 1.00000   PRTSCN=       F   NPRT  =       0
     PULCOR=       F   NPUN  =       0   REDOVB=       T
     THERMOCHEMISTRY WILL BE PRINTED FOR    1 TEMPERATURES:
      298.15000

     ------------------------------
     CPHF RESPONSE SOLUTION OPTIONS
     ------------------------------
     POLAR  =       F     NWORD  =       0
     CPHF   =AO      

          ********************
          1 ELECTRON INTEGRALS
          ********************
 ...... END OF ONE-ELECTRON INTEGRALS ......
 CPU     0: STEP CPU TIME=     0.00 TOTAL CPU TIME=        0.0 (    0.0 MIN)
 TOTAL WALL CLOCK TIME=        0.0 SECONDS, CPU UTILIZATION IS  50.00%

          -------------
          GUESS OPTIONS
          -------------
          GUESS =HUCKEL            NORB  =       0          NORDER=       0
          MIX   =       F          PRTMO =       F          PUNMO =       F
          TOLZ  = 1.0E-08          TOLE  = 1.0E-05
          SYMDEN=       F          PURIFY=       F

 INITIAL GUESS ORBITALS GENERATED BY HUCKEL   ROUTINE.
 HUCKEL GUESS REQUIRES      8160 WORDS.

 SYMMETRIES FOR INITIAL GUESS ORBITALS FOLLOW.   BOTH SET(S).
     9 ORBITALS ARE OCCUPIED (    2 CORE ORBITALS).
     3=A        4=A        5=A        6=A        7=A        8=A        9=A   
    10=A       11=A       12=A       13=A       14=A       15=A       16=A   
 ...... END OF INITIAL ORBITAL SELECTION ......
 CPU     0: STEP CPU TIME=     0.00 TOTAL CPU TIME=        0.0 (    0.0 MIN)
 TOTAL WALL CLOCK TIME=        0.0 SECONDS, CPU UTILIZATION IS  33.33%

                    ----------------------
                    AO INTEGRAL TECHNOLOGY
                    ----------------------
     S,P,L SHELL ROTATED AXIS INTEGRALS, REPROGRAMMED BY
        KAZUYA ISHIMURA (IMS) AND JOSE SIERRA (SYNSTAR).
     S,P,D,L SHELL ROTATED AXIS INTEGRALS PROGRAMMED BY
        KAZUYA ISHIMURA (INSTITUTE FOR MOLECULAR SCIENCE).
     S,P,D,F,G SHELL TO TOTAL QUARTET ANGULAR MOMENTUM SUM 5,
        ERIC PROGRAM BY GRAHAM FLETCHER (ELORET AND NASA ADVANCED
        SUPERCOMPUTING DIVISION, AMES RESEARCH CENTER).
     S,P,D,F,G,L SHELL GENERAL RYS QUADRATURE PROGRAMMED BY
        MICHEL DUPUIS (PACIFIC NORTHWEST NATIONAL LABORATORY).

          --------------------
          2 ELECTRON INTEGRALS
          --------------------

 THE -PK- OPTION IS OFF, THE INTEGRALS ARE NOT IN SUPERMATRIX FORM.
 STORING   15000 INTEGRALS/RECORD ON DISK, USING 12 BYTES/INTEGRAL.
 TWO ELECTRON INTEGRAL EVALUATION REQUIRES   89411 WORDS OF MEMORY.
 SCHWARZ INEQUALITY OVERHEAD:       136 INTEGRALS, T=        0.01
 II,JST,KST,LST =  1  1  1  1 NREC =         1 INTLOC =    1
 II,JST,KST,LST =  2  1  1  1 NREC =         1 INTLOC =    1
 II,JST,KST,LST =  3  1  1  1 NREC =         1 INTLOC =    1
 II,JST,KST,LST =  4  1  1  1 NREC =         1 INTLOC =    1
 II,JST,KST,LST =  5  1  1  1 NREC =         1 INTLOC =    1
 II,JST,KST,LST =  6  1  1  1 NREC =         1 INTLOC =    2
 II,JST,KST,LST =  7  1  1  1 NREC =         1 INTLOC =  425
 II,JST,KST,LST =  8  1  1  1 NREC =         1 INTLOC =  425
 II,JST,KST,LST =  9  1  1  1 NREC =         1 INTLOC =  710
 II,JST,KST,LST = 10  1  1  1 NREC =         1 INTLOC =  935
 SCHWARZ INEQUALITY TEST SKIPPED           7 INTEGRAL BLOCKS.
 TOTAL NUMBER OF NONZERO TWO-ELECTRON INTEGRALS =                8812
          8 INTEGRAL RECORDS WERE STORED ON DISK FILE  8.
  ...... END OF TWO-ELECTRON INTEGRALS .....
 CPU     0: STEP CPU TIME=     0.02 TOTAL CPU TIME=        0.0 (    0.0 MIN)
 TOTAL WALL CLOCK TIME=        0.0 SECONDS, CPU UTILIZATION IS  75.00%

          --------------------------
                 RHF SCF CALCULATION
          --------------------------

     NUCLEAR ENERGY =        42.2730006960
     MAXIT =   30     NPUNCH=    2
     EXTRAP=T  DAMP=F  SHIFT=F  RSTRCT=F  DIIS=F  DEM=F  SOSCF=T
     DENSITY MATRIX CONV=  1.00E-05
     SOSCF WILL OPTIMIZE      63 ORBITAL ROTATIONS, SOGTOL=   0.250
     MEMORY REQUIRED FOR RHF ITERS=     32268 WORDS.

 ITER EX DEM     TOTAL ENERGY        E CHANGE  DENSITY CHANGE     ORB. GRAD
   1  0  0      -78.2125967024   -78.2125967024   0.285753963   0.000000000
          ---------------START SECOND ORDER SCF---------------
   2  1  0      -78.3035750553    -0.0909783529   0.041872529   0.018829765
   3  2  0      -78.3060354086    -0.0024603533   0.021109361   0.006223867
   4  3  0      -78.3061791637    -0.0001437551   0.000304982   0.000782278
   5  4  0      -78.3061796298    -0.0000004661   0.000051302   0.000050669
   6  5  0      -78.3061796380    -0.0000000083   0.000012097   0.000009258
   7  6  0      -78.3061796383    -0.0000000003   0.000001621   0.000002136
   8  7  0      -78.3061796383     0.0000000000   0.000000134   0.000000124

          -----------------
          DENSITY CONVERGED
          -----------------
     TIME TO FORM FOCK OPERATORS=       0.0 SECONDS (       0.0 SEC/ITER)
     TIME TO SOLVE SCF EQUATIONS=       0.0 SECONDS (       0.0 SEC/ITER)

 FINAL RHF ENERGY IS      -78.3061796383 AFTER   8 ITERATIONS

          ------------
          EIGENVECTORS
          ------------

                      1          2          3          4          5
                  -11.0355   -11.0352    -0.9810    -0.8121    -0.5720
                     A          A          A          A          A   
    1  C  1  S    0.701727   0.701099  -0.165546   0.145589   0.000002
    2  C  1  S    0.030735   0.022751   0.454675  -0.437671  -0.000008
    3  C  1  X    0.002677  -0.003299   0.058611   0.148204  -0.005758
    4  C  1  Y    0.000041  -0.000050   0.000896   0.002251   0.378452
    5  C  1  Z    0.000000   0.000000   0.000000   0.000000  -0.132723
    6  C  2  S   -0.700390   0.702435  -0.165546  -0.145589  -0.000003
    7  C  2  S   -0.030691   0.022809   0.454674   0.437672   0.000008
    8  C  2  X    0.002684   0.003293  -0.058610   0.148206  -0.005759
    9  C  2  Y    0.000041   0.000050  -0.000896   0.002251   0.378451
   10  C  2  Z    0.000000   0.000000   0.000000   0.000000  -0.132719
   11  H  3  S   -0.005012  -0.004916   0.111694  -0.169082   0.123237
   12  H  4  S   -0.005012  -0.004916   0.111695  -0.169084  -0.310833
   13  H  5  S   -0.005012  -0.004916   0.111695  -0.169083   0.187598
   14  H  6  S    0.005003  -0.004926   0.111694   0.169083  -0.187594
   15  H  7  S    0.005003  -0.004926   0.111695   0.169084   0.310831
   16  H  8  S    0.005003  -0.004926   0.111694   0.169083  -0.123240

                      6          7          8          9         10
                   -0.5720    -0.4716    -0.4603    -0.4603     0.6555
                     A          A          A          A          A   
    1  C  1  S    0.000001  -0.021587  -0.000006  -0.000002   0.000012
    2  C  1  S   -0.000003   0.091032   0.000025   0.000010  -0.000073
    3  C  1  X   -0.002020   0.540679   0.005942   0.002078  -0.003706
    4  C  1  Y    0.132706   0.008310  -0.383528  -0.134146   0.238541
    5  C  1  Z    0.378503   0.000001   0.134157  -0.383574   0.679401
    6  C  2  S   -0.000001  -0.021588  -0.000006  -0.000002  -0.000011
    7  C  2  S    0.000003   0.091037   0.000026   0.000009   0.000066
    8  C  2  X   -0.002019  -0.540678  -0.005941  -0.002078  -0.003709
    9  C  2  Y    0.132708  -0.008311   0.383529   0.134143   0.238532
   10  C  2  Z    0.378497   0.000001  -0.134162   0.383582   0.679415
   11  H  3  S    0.287773  -0.144163  -0.153807  -0.358305  -0.661417
   12  H  4  S   -0.037155  -0.144296   0.387147   0.045963   0.085707
   13  H  5  S   -0.250616  -0.144194  -0.233428   0.312311   0.575727
   14  H  6  S    0.250610  -0.144192  -0.233432   0.312317  -0.575738
   15  H  7  S    0.037159  -0.144296   0.387149   0.045960  -0.085694
   16  H  8  S   -0.287769  -0.144163  -0.153804  -0.358308   0.661423

                     11         12         13         14         15
                    0.6555     0.6870     0.7369     0.7813     0.7892
                     A          A          A          A          A   
    1  C  1  S   -0.000032  -0.092803  -0.149665   0.180881  -0.000019
    2  C  1  S    0.000189   0.532788   0.969098  -1.152629   0.000118
    3  C  1  X    0.010554   0.987326  -0.440683   0.177402  -0.004317
    4  C  1  Y   -0.679346   0.015210  -0.006794   0.002612   0.281660
    5  C  1  Z    0.238566   0.000002   0.000002   0.000070   0.805246
    6  C  2  S    0.000033   0.092816  -0.149648  -0.180888   0.000006
    7  C  2  S   -0.000194  -0.532868   0.968994   1.152679  -0.000041
    8  C  2  X    0.010551   0.987290   0.440760   0.177429   0.004291
    9  C  2  Y   -0.679343   0.015210   0.006793   0.002664  -0.281669
   10  C  2  Z    0.238579   0.000001   0.000006  -0.000072  -0.805229
   11  H  3  S    0.282917   0.075928  -0.522192   0.542227  -0.633114
   12  H  4  S   -0.714287   0.076225  -0.522336   0.542158   0.081199
   13  H  5  S    0.431339   0.075999  -0.522224   0.542302   0.551734
   14  H  6  S   -0.431346  -0.075955  -0.522208  -0.542205   0.551794
   15  H  7  S    0.714289  -0.076183  -0.522312  -0.542252   0.081287
   16  H  8  S   -0.282904  -0.075887  -0.522169  -0.542311  -0.633034

                     16
                    0.7892
                     A   
    1  C  1  S    0.000006
    2  C  1  S   -0.000037
    3  C  1  X    0.012290
    4  C  1  Y   -0.805165
    5  C  1  Z    0.281712
    6  C  2  S    0.000026
    7  C  2  S   -0.000168
    8  C  2  X   -0.012311
    9  C  2  Y    0.805167
   10  C  2  Z   -0.281698
   11  H  3  S    0.271683
   12  H  4  S   -0.684052
   13  H  5  S    0.412453
   14  H  6  S    0.412504
   15  H  7  S   -0.683991
   16  H  8  S    0.271757
 ...... END OF RHF CALCULATION ......
 CPU     0: STEP CPU TIME=     0.01 TOTAL CPU TIME=        0.0 (    0.0 MIN)
 TOTAL WALL CLOCK TIME=        0.1 SECONDS, CPU UTILIZATION IS  50.00%

     ----------------------------------------------------------------
     PROPERTY VALUES FOR THE RHF   SELF-CONSISTENT FIELD WAVEFUNCTION
     ----------------------------------------------------------------

          -----------------
          ENERGY COMPONENTS
          -----------------

         WAVEFUNCTION NORMALIZATION =       1.0000000000

                ONE ELECTRON ENERGY =    -188.3581944263
                TWO ELECTRON ENERGY =      67.7790140919
           NUCLEAR REPULSION ENERGY =      42.2730006960
                                      ------------------
                       TOTAL ENERGY =     -78.3061796383

 ELECTRON-ELECTRON POTENTIAL ENERGY =      67.7790140919
  NUCLEUS-ELECTRON POTENTIAL ENERGY =    -266.0306129510
   NUCLEUS-NUCLEUS POTENTIAL ENERGY =      42.2730006960
                                      ------------------
             TOTAL POTENTIAL ENERGY =    -155.9785981630
               TOTAL KINETIC ENERGY =      77.6724185247
                 VIRIAL RATIO (V/T) =       2.0081594101

          ---------------------------------------
          MULLIKEN AND LOWDIN POPULATION ANALYSES
          ---------------------------------------

     ATOMIC MULLIKEN POPULATION IN EACH MOLECULAR ORBITAL

                      1          2          3          4          5

                  2.000000   2.000000   2.000000   2.000000   2.000000

    1             1.003284   0.999689   0.721616   0.577779   0.561409
    2             0.999465   1.003507   0.721614   0.577782   0.561403
    3            -0.000459  -0.000532   0.092795   0.140739   0.045315
    4            -0.000459  -0.000532   0.092795   0.140740   0.288276
    5            -0.000459  -0.000532   0.092795   0.140739   0.105007
    6            -0.000457  -0.000534   0.092795   0.140740   0.105002
    7            -0.000457  -0.000534   0.092795   0.140741   0.288272
    8            -0.000457  -0.000534   0.092795   0.140740   0.045317

                      6          7          8          9

                  2.000000   2.000000   2.000000   2.000000

    1             0.561418   0.835546   0.456990   0.456987
    2             0.561405   0.835545   0.456997   0.457001
    3             0.247082   0.054778   0.056335   0.305709
    4             0.004119   0.054875   0.356913   0.005030
    5             0.187395   0.054801   0.129756   0.232259
    6             0.187386   0.054800   0.129761   0.232269
    7             0.004120   0.054876   0.356917   0.005030
    8             0.247076   0.054779   0.056333   0.305714

               ----- POPULATIONS IN EACH AO -----
                             MULLIKEN      LOWDIN
              1  C  1  S      1.99201     1.98532
              2  C  1  S      1.18132     1.01070
              3  C  1  X      0.96460     1.00101
              4  C  1  Y      1.01839     1.04328
              5  C  1  Z      1.01840     1.04330
              6  C  2  S      1.99201     1.98532
              7  C  2  S      1.18132     1.01070
              8  C  2  X      0.96460     1.00101
              9  C  2  Y      1.01839     1.04328
             10  C  2  Z      1.01840     1.04330
             11  H  3  S      0.94176     0.97213
             12  H  4  S      0.94176     0.97213
             13  H  5  S      0.94176     0.97213
             14  H  6  S      0.94176     0.97213
             15  H  7  S      0.94176     0.97213
             16  H  8  S      0.94176     0.97213

          ----- MULLIKEN ATOMIC OVERLAP POPULATIONS -----
          (OFF-DIAGONAL ELEMENTS NEED TO BE MULTIPLIED BY 2)

             1           2           3           4           5

    1    4.7190386
    2    0.3624178   4.7190400
    3    0.3848901  -0.0204723   0.6238718
    4    0.3848952  -0.0204713  -0.0220508   0.6238574
    5    0.3848916  -0.0204722  -0.0220532  -0.0220497   0.6238675
    6   -0.0204719   0.3848910  -0.0021282  -0.0021281   0.0018331
    7   -0.0204712   0.3848952  -0.0021281   0.0018330  -0.0021281
    8   -0.0204722   0.3848901   0.0018332  -0.0021281  -0.0021282

             6           7           8

    6    0.6238697
    7   -0.0220501   0.6238579
    8   -0.0220536  -0.0220507   0.6238724

          TOTAL MULLIKEN AND LOWDIN ATOMIC POPULATIONS
       ATOM         MULL.POP.    CHARGE          LOW.POP.     CHARGE
    1 C             6.174718   -0.174718         6.083607   -0.083607
    2 C             6.174718   -0.174718         6.083607   -0.083607
    3 H             0.941762    0.058238         0.972132    0.027868
    4 H             0.941758    0.058242         0.972129    0.027871
    5 H             0.941761    0.058239         0.972131    0.027869
    6 H             0.941762    0.058238         0.972132    0.027868
    7 H             0.941758    0.058242         0.972129    0.027871
    8 H             0.941763    0.058237         0.972133    0.027867

          -------------------------------
          BOND ORDER AND VALENCE ANALYSIS     BOND ORDER THRESHOLD=0.050
          -------------------------------

                   BOND                       BOND                       BOND
  ATOM PAIR DIST  ORDER      ATOM PAIR DIST  ORDER      ATOM PAIR DIST  ORDER
    1   2  1.538  1.009        1   3  1.086  0.984        1   4  1.086  0.984
    1   5  1.086  0.984        2   6  1.086  0.984        2   7  1.086  0.984
    2   8  1.086  0.984

                       TOTAL       BONDED        FREE
      ATOM            VALENCE     VALENCE     VALENCE
    1 C                 3.968       3.968       0.000
    2 C                 3.968       3.968       0.000
    3 H                 0.997       0.997       0.000
    4 H                 0.997       0.997       0.000
    5 H                 0.997       0.997       0.000
    6 H                 0.997       0.997       0.000
    7 H                 0.997       0.997       0.000
    8 H                 0.997       0.997       0.000

          ---------------------
          ELECTROSTATIC MOMENTS
          ---------------------

 POINT   1           X           Y           Z (BOHR)    CHARGE
                -7.433734    2.920232   -0.000002        0.00 (A.U.)
         DX          DY          DZ         /D/  (DEBYE)
    -0.000001   -0.000001    0.000002    0.000002
 ...... END OF PROPERTY EVALUATION ......
 CPU     0: STEP CPU TIME=     0.00 TOTAL CPU TIME=        0.0 (    0.0 MIN)
 TOTAL WALL CLOCK TIME=        0.1 SECONDS, CPU UTILIZATION IS  50.00%

     ---------------------------------------------
     1ST AND 2ND INTEGRAL DERIVATIVE CONTRIBUTIONS
     ---------------------------------------------
 ...... END OF 1-ELECTRON GRAD+HESS+FOCKDER ......
 CPU     0: STEP CPU TIME=     0.00 TOTAL CPU TIME=        0.0 (    0.0 MIN)
 TOTAL WALL CLOCK TIME=        0.1 SECONDS, CPU UTILIZATION IS  44.44%

     ----------------------------------------------
     TWO ELECTRON INTEGRAL DERIVATIVE CONTRIBUTIONS
     ----------------------------------------------

      12160 WORDS REQUIRED,   1000000 WORDS AVAILABLE
 THE COARSE/FINE SCHWARZ SCREENINGS SKIPPED          1/         9 BLOCKS.
 THE NUMBER OF DERIVATIVE INTEGRAL BLOCKS COMPUTED WAS      1512
 CPU     0: STEP CPU TIME=     0.05 TOTAL CPU TIME=        0.1 (    0.0 MIN)
 TOTAL WALL CLOCK TIME=        0.1 SECONDS, CPU UTILIZATION IS  64.29%
 ...... END OF 2-ELECTRON GRAD+HESS+FOCKDER ......
 CPU     0: STEP CPU TIME=     0.00 TOTAL CPU TIME=        0.1 (    0.0 MIN)
 TOTAL WALL CLOCK TIME=        0.1 SECONDS, CPU UTILIZATION IS  64.29%

     -------------------------------------------
     COUPLED-PERTURBED CLOSED SHELL HARTREE-FOCK
     -------------------------------------------
 THE CPHF HAS      63 INDEPENDENT ORBITAL ROTATIONS.
 SOLVING FOR   24 NUCLEAR RESPONSES AND 0 ELECTRIC FIELD RESPONSES
           -FA- WILL USE      4792 WORDS,
           -TA- WILL USE      9392 WORDS,
          -FCK- WILL USE     41732 WORDS,
 -WXY- AND -YA- WILL USE     45635 WORDS,
               THERE ARE   1000000 WORDS OF REPLICATED MEMORY AVAILABLE.
        TIME FOR -FA-   =        0.000
        TIME FOR -TA-   =        0.000
        TIME FOR -FCK-  =        0.000
 PRECONDITIONED CONJUGATE GRADIENT SOLVER     CONV. TOLERANCE=5.00E-05
 ITER    RESPONSE ERROR        IMPROVED
   1       2.91817E-01            24
   2       5.08491E-02            24
   3       6.05079E-03            24
   4       9.03723E-04            24
   5       1.51985E-04            24
   6       2.53729E-05            20
 THE CPHF HAS CONVERGED AFTER  6 ITERATIONS.
 IT REQUIRED   140 FOCK-LIKE BUILDS TO FIND THE  24 SYMMETRY UNIQUE RESPONSES.
        TIME FOR -YA-   =        0.010
 ...... DONE WITH CPHF CONTRIBUTIONS ......
 CPU     0: STEP CPU TIME=     0.01 TOTAL CPU TIME=        0.1 (    0.0 MIN)
 TOTAL WALL CLOCK TIME=        0.2 SECONDS, CPU UTILIZATION IS  62.50%

          ---------------
          ENERGY GRADIENT
          ---------------

 UNITS ARE HARTREE/BOHR    E'X               E'Y               E'Z 
    1 C               -0.000019435      -0.000023217      -0.000001633
    2 C                0.000015818       0.000024119      -0.000000884
    3 H               -0.000008555       0.000020012       0.000013713
    4 H               -0.000006030      -0.000018109       0.000006696
    5 H               -0.000007482       0.000014441      -0.000018836
    6 H                0.000009320      -0.000014449       0.000018705
    7 H                0.000006889       0.000017762      -0.000005361
    8 H                0.000009476      -0.000020559      -0.000012400

          -------------------------------
          CARTESIAN FORCE CONSTANT MATRIX
          -------------------------------

                                   1                          2
                               C                          C         
                          X        Y        Z        X        Y        Z
  1   C            X 0.729876-0.001996 0.000001-0.328035-0.003119 0.000000
                   Y-0.001996 0.861377-0.000023-0.003119-0.123301 0.000001
                   Z 0.000001-0.000023 0.861358 0.000000 0.000001-0.123250
  2   C            X-0.328035-0.003119 0.000000 0.729883-0.001996 0.000000
                   Y-0.003119-0.123301 0.000001-0.001996 0.861378-0.000020
                   Z 0.000000 0.000001-0.123250 0.000000-0.000020 0.861351
  3   H            X-0.123215 0.086706 0.095270-0.013710 0.030478 0.033477
                   Y 0.084955-0.232920-0.165944-0.003349 0.004125 0.004540
                   Z 0.093358-0.165971-0.264695-0.003426 0.003979 0.004411
  4   H            X-0.116999-0.118478 0.026160-0.012677-0.044728 0.009877
                   Y-0.115947-0.406000 0.071453 0.004145 0.007113-0.001561
                   Z 0.025599 0.071445-0.097848-0.000962-0.001726 0.000393
  5   H            X-0.121766 0.037676-0.121430-0.013476 0.013461-0.043354
                   Y 0.036898-0.111324 0.094512-0.001588 0.000929-0.002980
                   Z-0.118958 0.094547-0.387744 0.004388-0.002253 0.007374
  6   H            X-0.013476 0.013461-0.043354-0.121768 0.037676-0.121431
                   Y-0.001588 0.000929-0.002980 0.036898-0.111324 0.094511
                   Z 0.004388-0.002253 0.007374-0.118958 0.094546-0.387740
  7   H            X-0.012677-0.044728 0.009877-0.117001-0.118480 0.026160
                   Y 0.004146 0.007114-0.001561-0.115949-0.405999 0.071451
                   Z-0.000962-0.001726 0.000393 0.025599 0.071443-0.097847
  8   H            X-0.013709 0.030478 0.033477-0.123217 0.086708 0.095271
                   Y-0.003349 0.004125 0.004540 0.084957-0.232921-0.165943
                   Z-0.003426 0.003979 0.004411 0.093359-0.165970-0.264692

                                   3                          4
                               H                          H         
                          X        Y        Z        X        Y        Z
  3   H            X 0.125897-0.091230-0.100445 0.006600-0.010897-0.013639
                   Y-0.091230 0.232360 0.178422 0.017679-0.016997-0.031700
                   Z-0.100445 0.178422 0.266497-0.005297 0.012056 0.010559
  4   H            X 0.006600 0.017679-0.005297 0.119277 0.124930-0.027544
                   Y-0.010897-0.016997 0.012056 0.124930 0.418360-0.076803
                   Z-0.013639-0.031700 0.010559-0.027544-0.076803 0.087127
  5   H            X 0.006999-0.006675 0.017248 0.006488-0.004060 0.016966
                   Y-0.013164 0.011725-0.028691 0.018027-0.004524 0.038886
                   Z-0.012665 0.014485-0.018566-0.002612-0.005040-0.001800
  6   H            X 0.002844-0.000159 0.000264 0.002831 0.000047 0.000345
                   Y-0.000254 0.000005 0.000348 0.000370 0.000446-0.000585
                   Z-0.000159 0.000018 0.000793 0.000044-0.000267 0.000365
  7   H            X 0.002834 0.000317-0.000179-0.008355 0.001881-0.000449
                   Y-0.000101 0.000759 0.000083 0.001881 0.000844 0.000079
                   Z-0.000316 0.000404 0.000050-0.000449 0.000079 0.001154
  8   H            X-0.008251-0.001539-0.001522 0.002834-0.000101-0.000316
                   Y-0.001539 0.000943-0.000226 0.000317 0.000759 0.000404
                   Z-0.001522-0.000226 0.000952-0.000179 0.000083 0.000050

                                   5                          6
                               H                          H         
                          X        Y        Z        X        Y        Z
  5   H            X 0.124354-0.039524 0.127990-0.008275-0.000765 0.001972
                   Y-0.039524 0.101628-0.101636-0.000765 0.001115 0.000147
                   Z 0.127990-0.101636 0.398775 0.001972 0.000147 0.000802
  6   H            X-0.008275-0.000765 0.001972 0.124356-0.039524 0.127990
                   Y-0.000765 0.001115 0.000147-0.039524 0.101628-0.101635
                   Z 0.001972 0.000147 0.000802 0.127990-0.101635 0.398772
  7   H            X 0.002831 0.000370 0.000044 0.006488 0.018027-0.002612
                   Y 0.000047 0.000446-0.000267-0.004060-0.004525-0.005040
                   Z 0.000345-0.000585 0.000365 0.016966 0.038886-0.001800
  8   H            X 0.002844-0.000254-0.000159 0.006999-0.013164-0.012665
                   Y-0.000159 0.000005 0.000018-0.006675 0.011725 0.014485
                   Z 0.000264 0.000348 0.000793 0.017248-0.028691-0.018567

                                   7                          8
                               H                          H         
                          X        Y        Z        X        Y        Z
  7   H            X 0.119278 0.124932-0.027544 0.006600 0.017679-0.005298
                   Y 0.124932 0.418359-0.076802-0.010897-0.016997 0.012056
                   Z-0.027544-0.076802 0.087126-0.013639-0.031700 0.010559
  8   H            X 0.006600-0.010897-0.013639 0.125899-0.091231-0.100446
                   Y 0.017679-0.016997-0.031700-0.091231 0.232361 0.178422
                   Z-0.005298 0.012056 0.010559-0.100446 0.178422 0.266494

          ------------------------          ----------------
          DIPOLE DERIVATIVE TENSOR          (DEBYE/ANGSTROM)
          ------------------------          ----------------

        ATOM                 MU-X           MU-Y           MU-Z
     C          D/DX     0.281397384    0.005098262    0.000001828
                D/DY     0.005159382   -0.056490920    0.000024645
                D/DZ     0.000003934    0.000024614   -0.056530265
     C          D/DX     0.281389603    0.005100070   -0.000003639
                D/DY     0.005161959   -0.056483083    0.000022506
                D/DZ    -0.000003713    0.000022578   -0.056516168
     H          D/DX    -0.096516489    0.104143111    0.118367354
                D/DY     0.071035792    0.036332957   -0.168075394
                D/DZ     0.082282480   -0.168648596    0.004018964
     H          D/DX    -0.089900879   -0.152583412    0.032894473
                D/DY    -0.104791788   -0.139484088    0.072585797
                D/DZ     0.022286122    0.072413887    0.173341628
     H          D/DX    -0.094976437    0.043341749   -0.151262392
                D/DY     0.028592072    0.159667577    0.095464604
                D/DZ    -0.104571172    0.096209720   -0.120820681
     H          D/DX    -0.094981990    0.043341761   -0.151263630
                D/DY     0.028595266    0.159671426    0.095471950
                D/DZ    -0.104582989    0.096217180   -0.120837924
     H          D/DX    -0.089907748   -0.152581143    0.032897350
                D/DY    -0.104797078   -0.139487829    0.072582789
                D/DZ     0.022292736    0.072415397    0.173345228
     H          D/DX    -0.096523269    0.104139498    0.118368654
                D/DY     0.071036234    0.036330235   -0.168076768
                D/DZ     0.082291467   -0.168654606    0.004020693

          --------------------------------------------------------
          NORMAL COORDINATE ANALYSIS IN THE HARMONIC APPROXIMATION
          --------------------------------------------------------

          ATOMIC WEIGHTS (AMU)

    1     C                12.00000
    2     C                12.00000
    3     H                 1.00782
    4     H                 1.00782
    5     H                 1.00782
    6     H                 1.00782
    7     H                 1.00782
    8     H                 1.00782

 MODES 1 TO 6 ARE TAKEN AS ROTATIONS AND TRANSLATIONS.

 ANALYZING SYMMETRY OF NORMAL MODES...

     FREQUENCIES IN CM**-1, IR INTENSITIES IN DEBYE**2/AMU-ANGSTROM**2,
     REDUCED MASSES IN AMU.

                          1           2           3           4           5
       FREQUENCY:         0.01        0.00        0.01        8.51        9.00  
        SYMMETRY:         A           A           A           A           A   
    REDUCED MASS:      3.75588     3.75588     3.75587     2.06767     2.06810
    IR INTENSITY:      0.00000     0.00000     0.00000     0.00000     0.00000

  1   C            X  0.00026990 -0.00001094  0.18243131 -0.00090023  0.00214305
                   Y  0.18211845  0.01068068 -0.00026880  0.05913608 -0.14077573
                   Z -0.01068066  0.18211865  0.00002673  0.14077572  0.05914223
  2   C            X  0.00026990 -0.00001094  0.18243131  0.00090025 -0.00214303
                   Y  0.18211840  0.01068067 -0.00026879 -0.05913616  0.14077581
                   Z -0.01068064  0.18211863  0.00002672 -0.14077564 -0.05914212
  3   H            X  0.00026962 -0.00001158  0.18243122  0.18843969 -0.06486241
                   Y  0.18211928  0.01067953 -0.00026881  0.09583063 -0.21120946
                   Z -0.01068153  0.18211935  0.00002673  0.20727303  0.08781048
  4   H            X  0.00027031 -0.00001109  0.18243124 -0.03736774  0.20167479
                   Y  0.18211851  0.01068029 -0.00026880  0.08940166 -0.20785246
                   Z -0.01067923  0.18211667  0.00002673  0.21677573  0.09001368
  5   H            X  0.00026976 -0.00001015  0.18243121 -0.15512385 -0.12716779
                   Y  0.18211676  0.01068216 -0.00026881  0.08087663 -0.21441399
                   Z -0.01068116  0.18211878  0.00002675  0.20943205  0.08830889
  6   H            X  0.00026972 -0.00001013  0.18243123  0.15512307  0.12716725
                   Y  0.18211657  0.01068216 -0.00026880 -0.08086998  0.21440750
                   Z -0.01068117  0.18211876  0.00002673 -0.20943046 -0.08831134
  7   H            X  0.00027038 -0.00001109  0.18243123  0.03736680 -0.20167335
                   Y  0.18211846  0.01068028 -0.00026879 -0.08940265  0.20785455
                   Z -0.01067910  0.18211663  0.00002671 -0.21678200 -0.09000827
  8   H            X  0.00026958 -0.00001161  0.18243121 -0.18843838  0.06486114
                   Y  0.18211928  0.01067951 -0.00026881 -0.09583543  0.21121379
                   Z -0.01068159  0.18211933  0.00002671 -0.20726973 -0.08781482

 TRANS. SAYVETZ    X  0.00810967 -0.00032880  5.48150382 -0.00000016 -0.00000018
                   Y  5.47210143  0.32092163 -0.00807651 -0.00000015  0.00000095
                   Z -0.32092079  5.47210738  0.00080303 -0.00000036 -0.00000009
               TOTAL  5.48150983  5.48150983  5.48150983  0.00000042  0.00000098

   ROT. SAYVETZ    X  0.00000066 -0.00000006 -0.00000001 -0.20029009 -0.07153038
                   Y -0.00000040  0.00000061  0.00000038  8.76893293  3.68417238
                   Z -0.00000162 -0.00000020  0.00000018 -3.68487877  8.77201107
               TOTAL  0.00000180  0.00000064  0.00000043  9.51381272  9.51453735

                          6           7           8           9          10
       FREQUENCY:        16.98      317.07      980.83      980.85     1193.20  
        SYMMETRY:         A           A           A           A           A   
    REDUCED MASS:      1.00793     1.00783     1.05349     1.05348     2.65912
    IR INTENSITY:      0.00000     0.00000     0.08504     0.08501     0.00000

  1   C            X -0.00000573 -0.00000002  0.00022486 -0.00063907  0.16804922
                   Y  0.00037623  0.00000087 -0.01472668  0.04188090  0.00256220
                   Z  0.00218552  0.00000164 -0.04188750 -0.01472697  0.00000004
  2   C            X  0.00000573  0.00000002  0.00022469 -0.00063921 -0.16804907
                   Y -0.00037631 -0.00000218 -0.01472629  0.04188097 -0.00256219
                   Z -0.00218552  0.00000050 -0.04188847 -0.01472774 -0.00000007
  3   H            X  0.00701420 -0.00455308  0.46036404 -0.19417467  0.23023314
                   Y -0.29910425  0.29975676  0.03828847 -0.18151176  0.01241278
                   Z  0.27801540 -0.27477783  0.15394998  0.08562233  0.00971941
  4   H            X  0.00146896 -0.00133933 -0.06084320  0.49964347  0.23059390
                   Y -0.08747906  0.08806213  0.06047082 -0.12899169 -0.00936653
                   Z -0.39368257  0.39703079  0.19592664  0.05551986  0.00285589
  5   H            X -0.00850894  0.00589232 -0.40219817 -0.29785963  0.23031521
                   Y  0.38827625 -0.38781289  0.07658719 -0.18816585  0.00746878
                   Z  0.12551381 -0.12225160  0.14887720  0.03421349 -0.01257510
  6   H            X  0.00850908  0.00589219 -0.40219887 -0.29786000 -0.23031596
                   Y -0.38829747 -0.38779402  0.07658790 -0.18816733 -0.00746889
                   Z -0.12552050 -0.12224597  0.14887890  0.03421405  0.01257538
  7   H            X -0.00147146 -0.00133649 -0.06084257  0.49964553 -0.23059440
                   Y  0.08748331  0.08805103  0.06047054 -0.12899479  0.00936703
                   Z  0.39370677  0.39700662  0.19592750  0.05552369 -0.00285572
  8   H            X -0.00701185 -0.00455560  0.46036601 -0.19417460 -0.23023369
                   Y  0.29912142  0.29973368  0.03828855 -0.18151196 -0.01241334
                   Z -0.27803275 -0.27476500  0.15395502  0.08562186 -0.00971953

 TRANS. SAYVETZ    X  0.00000000  0.00000000  0.00000006 -0.00000016  0.00000000
                   Y -0.00000076 -0.00001912  0.00000191 -0.00000517  0.00000000
                   Z  0.00000010  0.00002265  0.00000913  0.00000308  0.00000000
               TOTAL  0.00000076  0.00002964  0.00000933  0.00000602  0.00000000

   ROT. SAYVETZ    X  4.71700738 -0.00014428 -0.00000959  0.00001130  0.00000000
                   Y  0.20798168  0.00003365 -0.00000440  0.00000577  0.00000036
                   Z -0.02344444 -0.00009559  0.00001398 -0.00001951 -0.00000142
               TOTAL  4.72164851  0.00017631  0.00001751  0.00002328  0.00000147

                         11          12          13          14          15
       FREQUENCY:      1459.43     1459.43     1715.76     1762.59     1832.05  
        SYMMETRY:         A           A           A           A           A   
    REDUCED MASS:      1.41873     1.41869     1.19554     1.36274     1.02963
    IR INTENSITY:      0.00000     0.00000     0.01819     0.00000     0.00000

  1   C            X  0.00055157 -0.00166918 -0.08450804 -0.10882455  0.00016368
                   Y -0.03598728  0.10897450 -0.00129324 -0.00166718 -0.01025804
                   Z -0.10899091 -0.03598988 -0.00000074 -0.00000086 -0.02929760
  2   C            X -0.00055128  0.00166941 -0.08449390  0.10883539 -0.00016181
                   Y  0.03598708 -0.10897431 -0.00129347  0.00166783  0.01024434
                   Z  0.10899107  0.03599008  0.00000043 -0.00000043  0.02929368
  3   H            X  0.40211058 -0.17886809  0.33378062  0.30444067 -0.22397003
                   Y -0.01743452 -0.13176158  0.11092879  0.11073832 -0.22054951
                   Z  0.07924631  0.09231533  0.11540281  0.11564679  0.05386447
  4   H            X -0.04491336  0.43900774  0.33773853  0.30842445  0.02777279
                   Y  0.04112119 -0.03486610 -0.14777037 -0.14857109  0.09419674
                   Z  0.16678683  0.02699014  0.03393825  0.03402498  0.48618082
  5   H            X -0.35877527 -0.25537025  0.33468185  0.30534777  0.19324184
                   Y  0.07948894 -0.14574508  0.05223927  0.05193018  0.31569359
                   Z  0.06643779 -0.01614345 -0.14933143 -0.14966136  0.00083749
  6   H            X  0.35876923  0.25536597  0.33463684 -0.30538704 -0.19325401
                   Y -0.07948726  0.14574180  0.05223277 -0.05193728 -0.31555354
                   Z -0.06643658  0.01614297 -0.14931056  0.14967962 -0.00078799
  7   H            X  0.04491468 -0.43900733  0.33769913 -0.30846989 -0.02772399
                   Y -0.04112050  0.03486838 -0.14775716  0.14859690 -0.09420762
                   Z -0.16678615 -0.02699348  0.03392294 -0.03401861 -0.48610559
  8   H            X -0.40210928  0.17886914  0.33374123 -0.30448505  0.22391108
                   Y  0.01743452  0.13176032  0.11092605 -0.11076474  0.22058355
                   Z -0.07925003 -0.09231384  0.11538161 -0.11565600 -0.05394256

 TRANS. SAYVETZ    X  0.00000000  0.00000000  0.00000099  0.00000000  0.00000000
                   Y  0.00000000  0.00000000 -0.00000012  0.00000000  0.00000000
                   Z  0.00000000  0.00000000 -0.00000003  0.00000000  0.00000000
               TOTAL  0.00000000  0.00000000  0.00000100  0.00000000  0.00000000

   ROT. SAYVETZ    X  0.00008902  0.00002981 -0.00000016 -0.00000004  0.00002053
                   Y  0.00028904  0.00012864  0.00001075  0.00000291 -0.00004937
                   Z -0.00009214  0.00037958  0.00000407 -0.00013783  0.00001782
               TOTAL  0.00031616  0.00040190  0.00001149  0.00013786  0.00005636

                         16          17          18          19          20
       FREQUENCY:      1832.10     1847.83     1847.88     3569.08     3570.09  
        SYMMETRY:         A           A           A           A           A   
    REDUCED MASS:      1.02964     1.06177     1.06177     1.03615     1.04392
    IR INTENSITY:      0.00000     0.06331     0.06334     0.11697     0.00000

  1   C            X  0.00046336  0.00024672  0.00069978 -0.03527166  0.03964104
                   Y -0.02930989 -0.01588825 -0.04535791 -0.00052687  0.00059204
                   Z  0.01025248 -0.04536899  0.01589672  0.00000095 -0.00000091
  2   C            X -0.00046444  0.00024475  0.00070174 -0.03524212 -0.03966831
                   Y  0.02929040 -0.01589762 -0.04537080 -0.00052582 -0.00059189
                   Z -0.01025812 -0.04537123  0.01589276 -0.00000058 -0.00000049
  3   H            X -0.10221245 -0.18533758 -0.08558748  0.14386008 -0.14007432
                   Y  0.30515792 -0.22614232  0.30802378 -0.25155907  0.25116442
                   Z -0.34340270  0.05084622 -0.34941202 -0.27681164  0.27631937
  4   H            X  0.24736153  0.02283209  0.20581604  0.13438521 -0.13061339
                   Y -0.12181523  0.09469832 -0.12940479  0.36856008 -0.36783422
                   Z -0.03238187  0.49264488 -0.03190612 -0.08129237  0.08114384
  5   H            X -0.15354427  0.15957150 -0.12856294  0.14170507 -0.13792235
                   Y  0.35758051  0.32059625  0.36141204 -0.11072782  0.11058243
                   Z  0.18653153 -0.00329900  0.19202854  0.35809297 -0.35745248
  6   H            X  0.15354581  0.15957517 -0.12857506  0.14160559  0.13803533
                   Y -0.35737870  0.32073922  0.36161084 -0.11064678 -0.11066937
                   Z -0.18647013 -0.00325662  0.19209577  0.35783100  0.35773360
  7   H            X -0.24727922  0.02290018  0.20589952  0.13428593  0.13071545
                   Y  0.12179237  0.09467990 -0.12942117  0.36827369  0.36810784
                   Z  0.03249149  0.49271955 -0.03179902 -0.08122797 -0.08120295
  8   H            X  0.10214148 -0.18539332 -0.08567783  0.14375391  0.14018388
                   Y -0.30510486 -0.22610209  0.30807122 -0.25136524 -0.25135286
                   Z  0.34329889  0.05077333 -0.34951903 -0.27659642 -0.27652470

 TRANS. SAYVETZ    X  0.00000000 -0.00000001 -0.00000002  0.00000025  0.00000000
                   Y  0.00000000  0.00000026  0.00000076  0.00000063  0.00000000
                   Z  0.00000000  0.00000002 -0.00000001 -0.00000003  0.00000000
               TOTAL  0.00000000  0.00000026  0.00000076  0.00000068  0.00000000

   ROT. SAYVETZ    X -0.00000759 -0.00000052 -0.00000065  0.00000000  0.00000002
                   Y  0.00002240 -0.00000667  0.00000179  0.00000022 -0.00000002
                   Z  0.00006555  0.00000330  0.00000791  0.00000008  0.00001071
               TOTAL  0.00006968  0.00000746  0.00000814  0.00000023  0.00001071

                         21          22          23          24
       FREQUENCY:      3745.57     3745.64     3757.76     3757.83  
        SYMMETRY:         A           A           A           A   
    REDUCED MASS:      1.11058     1.11059     1.10774     1.10775
    IR INTENSITY:      0.00000     0.00000     0.10078     0.10071

  1   C            X -0.00032338 -0.00092550  0.00032012  0.00091490
                   Y  0.02143048  0.06123040 -0.02118229 -0.06043829
                   Z  0.06121744 -0.02141190 -0.06046163  0.02120766
  2   C            X  0.00032377  0.00092489  0.00032104  0.00091438
                   Y -0.02141384 -0.06122676 -0.02119959 -0.06044182
                   Z -0.06124946  0.02143879 -0.06042865  0.02118036
  3   H            X  0.17614255  0.07554260 -0.18250999 -0.07808300
                   Y -0.31690682 -0.13208982  0.31513515  0.13307196
                   Z -0.34577273 -0.15201160  0.34549618  0.14951181
  4   H            X -0.02115995 -0.17756664  0.02201761  0.18439695
                   Y -0.05842430 -0.49967043  0.05895205  0.49802520
                   Z  0.01787021  0.10963626 -0.01528159 -0.10956667
  5   H            X -0.15118434  0.11289413  0.15668033 -0.11720718
                   Y  0.12385890 -0.08673063 -0.12187169  0.08853183
                   Z -0.39043606  0.29362483  0.38968899 -0.29245876
  6   H            X  0.15129310 -0.11296892  0.15657404 -0.11713441
                   Y -0.12394116  0.08678714 -0.12178574  0.08847132
                   Z  0.39070186 -0.29380734  0.38940854 -0.29226707
  7   H            X  0.02109031  0.17757819  0.02208153  0.18439484
                   Y  0.05823546  0.49969378  0.05913202  0.49801055
                   Z -0.01782962 -0.10963801 -0.01531915 -0.10956310
  8   H            X -0.17618631 -0.07547205 -0.18247776 -0.07814811
                   Y  0.31697979  0.13196653  0.31507210  0.13318826
                   Z  0.34584754  0.15187568  0.34542698  0.14963690

 TRANS. SAYVETZ    X  0.00000000  0.00000000  0.00000000  0.00000000
                   Y  0.00000000  0.00000000  0.00000014  0.00000039
                   Z  0.00000000  0.00000000  0.00000003 -0.00000001
               TOTAL  0.00000000  0.00000000  0.00000014  0.00000039

   ROT. SAYVETZ    X -0.00002846  0.00001030 -0.00000149 -0.00000188
                   Y -0.00000047 -0.00000306 -0.00000275  0.00000136
                   Z  0.00000011 -0.00000895  0.00000019  0.00000178
               TOTAL  0.00002846  0.00001399  0.00000314  0.00000293

 REFERENCE ON SAYVETZ CONDITIONS - A. SAYVETZ, J.CHEM.PHYS., 7, 383-389(1939).

 NOTE - THE MODES J,K ARE ORTHONORMALIZED ACCORDING TO
 SUM ON I   M(I) * (X(I,J)*X(I,K) + Y(I,J)*Y(I,K) + Z(I,J)*Z(I,K)) = DELTA(J,K)

  MODE FREQ(CM**-1)  SYMMETRY  RED. MASS  IR INTENS.
     1       0.005    A        3.755875    0.000000
     2       0.002    A        3.755878    0.000000
     3       0.005    A        3.755871    0.000000
     4       8.507    A        2.067673    0.000000
     5       8.995    A        2.068095    0.000000
     6      16.980    A        1.007934    0.000000
     7     317.073    A        1.007825    0.000000
     8     980.834    A        1.053486    0.085041
     9     980.849    A        1.053481    0.085009
    10    1193.199    A        2.659125    0.000000
    11    1459.429    A        1.418734    0.000000
    12    1459.435    A        1.418694    0.000000
    13    1715.761    A        1.195542    0.018187
    14    1762.593    A        1.362741    0.000000
    15    1832.047    A        1.029631    0.000000
    16    1832.098    A        1.029644    0.000000
    17    1847.827    A        1.061771    0.063311
    18    1847.880    A        1.061770    0.063336
    19    3569.075    A        1.036147    0.116971
    20    3570.092    A        1.043922    0.000000
    21    3745.574    A        1.110578    0.000000
    22    3745.645    A        1.110586    0.000000
    23    3757.757    A        1.107740    0.100783
    24    3757.826    A        1.107746    0.100707

     -------------------------------
     THERMOCHEMISTRY AT T=  298.15 K
     -------------------------------

 USING IDEAL GAS, RIGID ROTOR, HARMONIC NORMAL MODE APPROXIMATIONS.
 P=  1.01325E+05 PASCAL.
 ALL FREQUENCIES ARE SCALED BY   1.00000
 THE MOMENTS OF INERTIA ARE (IN AMU*BOHR**2)
     22.27958    90.52629    90.52715
 THE ROTATIONAL SYMMETRY NUMBER IS  1.0
 THE ROTATIONAL CONSTANTS ARE (IN GHZ)
     80.93010    19.91784    19.91765
 THE HARMONIC ZERO POINT ENERGY IS (SCALED BY   1.000)
        0.089703 HARTREE/MOLECULE    19687.496301 CM**-1/MOLECULE 
       56.289433 KCAL/MOL              235.514988 KJ/MOL

               Q               LN Q
 ELEC.     1.00000E+00       0.000000
 TRANS.    6.47373E+06      15.683262
 ROT.      4.83695E+03       8.484040
 VIB.      1.30682E+00       0.267599
 TOT.      4.09207E+10      24.434901

              E         H         G         CV        CP        S
           KJ/MOL    KJ/MOL    KJ/MOL   J/MOL-K   J/MOL-K   J/MOL-K
 ELEC.      0.000     0.000     0.000     0.000     0.000     0.000
 TRANS.     3.718     6.197   -38.878    12.472    20.786   151.183
 ROT.       3.718     3.718   -21.031    12.472    12.472    83.011
 VIB.     236.869   236.869   234.852    12.432    12.432     6.766
 TOTAL    244.306   246.785   174.942    37.375    45.689   240.961
 VIB. THERMAL CORRECTION E(T)-E(0) = H(T)-H(0) =  1353.970 J/MOL

              E         H         G         CV        CP        S
         KCAL/MOL  KCAL/MOL  KCAL/MOL CAL/MOL-K CAL/MOL-K CAL/MOL-K
 ELEC.      0.000     0.000     0.000     0.000     0.000     0.000
 TRANS.     0.889     1.481    -9.292     2.981     4.968    36.134
 ROT.       0.889     0.889    -5.027     2.981     2.981    19.840
 VIB.      56.613    56.613    56.131     2.971     2.971     1.617
 TOTAL     58.390    58.983    41.812     8.933    10.920    57.591
 VIB. THERMAL CORRECTION E(T)-E(0) = H(T)-H(0) =   323.607 CAL/MOL
 ......END OF NORMAL COORDINATE ANALYSIS......
 CPU     0: STEP CPU TIME=     0.01 TOTAL CPU TIME=        0.1 (    0.0 MIN)
 TOTAL WALL CLOCK TIME=        0.2 SECONDS, CPU UTILIZATION IS  68.75%
                580000  WORDS OF DYNAMIC MEMORY USED
 EXECUTION OF GAMESS TERMINATED NORMALLY Sat Nov 14 13:20:47 2015
 DDI: 263624 bytes (0.3 MB / 0 MWords) used by master data server.

 ----------------------------------------
 CPU timing information for all processes
 ========================================
 0: 0.80 + 0.32 = 0.112
 1: 0.72 + 0.16 = 0.88
 2: 0.72 + 0.12 = 0.84
 3: 0.64 + 0.16 = 0.80
 4: 0.72 + 0.12 = 0.84
 5: 0.56 + 0.20 = 0.76
 6: 0.64 + 0.16 = 0.80
 7: 0.64 + 0.16 = 0.80
 ----------------------------------------
 ddikick.x: exited gracefully.
unset echo
----- accounting info -----
Files used on the master node GET-04 were:
-rw-r--r-- 1 carlos carlos   28308 Nov 14 13:20 /home/carlos/scr/gamess/ethane.dat
-rw-r--r-- 1 carlos carlos     642 Nov 14 13:20 /home/carlos/scr/gamess/ethane.F05
-rw-r--r-- 1 carlos carlos  180016 Nov 14 13:20 /home/carlos/scr/gamess/ethane.F08
-rw-r--r-- 1 carlos carlos  180016 Nov 14 13:20 /home/carlos/scr/gamess/ethane.F08.001
-rw-r--r-- 1 carlos carlos  180016 Nov 14 13:20 /home/carlos/scr/gamess/ethane.F08.002
-rw-r--r-- 1 carlos carlos  180016 Nov 14 13:20 /home/carlos/scr/gamess/ethane.F08.003
-rw-r--r-- 1 carlos carlos  180016 Nov 14 13:20 /home/carlos/scr/gamess/ethane.F08.004
-rw-r--r-- 1 carlos carlos  180016 Nov 14 13:20 /home/carlos/scr/gamess/ethane.F08.005
-rw-r--r-- 1 carlos carlos  180016 Nov 14 13:20 /home/carlos/scr/gamess/ethane.F08.006
-rw-r--r-- 1 carlos carlos  180016 Nov 14 13:20 /home/carlos/scr/gamess/ethane.F08.007
-rw-r--r-- 1 carlos carlos 1897760 Nov 14 13:20 /home/carlos/scr/gamess/ethane.F10
-rw-r--r-- 1 carlos carlos   26304 Nov 14 13:20 /home/carlos/scr/gamess/ethane.F18
ls: No match.
ls: No match.
ls: No match.
Sat Nov 14 13:20:50 BRST 2015
0.0u 0.0s 0:03.25 4.3% 0+0k 0+16io 0pf+0w
rm: No match.
rm: No match.
rm: No match.
