----- GAMESS execution script 'rungms' -----
This job is running on host GET-04
under operating system Linux at Sat Nov 14 12:03:31 BRST 2015
Available scratch disk space (Kbyte units) at beginning of the job is
Filesystem           1K-blocks      Used Available Use% Mounted on
/dev/md1             836273872 167545264 626248380  22% /
GAMESS temporary binary files will be written to /home/carlos/scr/gamess
GAMESS supplementary output files will be written to /home/carlos/scr/gamess
Copying input file dichloromethane.inp to your run's scratch directory...
cp dichloromethane.inp /home/carlos/scr/gamess/dichloromethane.F05
unset echo
/usr/local/gamess_2013_May_R1/ddikick.x /usr/local/gamess_2013_May_R1/gamess.00.x dichloromethane -ddi 1 8 localhost:cpus=8 -scr /home/carlos/scr/gamess

 Distributed Data Interface kickoff program.
 Initiating 8 compute processes on 1 nodes to run the following command:
 /usr/local/gamess_2013_May_R1/gamess.00.x dichloromethane 

          ******************************************************
          *         GAMESS VERSION =  1 MAY 2013 (R1)          *
          *             FROM IOWA STATE UNIVERSITY             *
          * M.W.SCHMIDT, K.K.BALDRIDGE, J.A.BOATZ, S.T.ELBERT, *
          *   M.S.GORDON, J.H.JENSEN, S.KOSEKI, N.MATSUNAGA,   *
          *          K.A.NGUYEN, S.J.SU, T.L.WINDUS,           *
          *       TOGETHER WITH M.DUPUIS, J.A.MONTGOMERY       *
          *         J.COMPUT.CHEM.  14, 1347-1363(1993)        *
          **************** 64 BIT INTEL VERSION ****************

  SINCE 1993, STUDENTS AND POSTDOCS WORKING AT IOWA STATE UNIVERSITY
  AND ALSO IN THEIR VARIOUS JOBS AFTER LEAVING ISU HAVE MADE IMPORTANT
  CONTRIBUTIONS TO THE CODE:
     IVANA ADAMOVIC, CHRISTINE AIKENS, YURI ALEXEEV, POOJA ARORA,
     ANDREY ASADCHEV, ROB BELL, PRADIPTA BANDYOPADHYAY, JONATHAN BENTZ,
     BRETT BODE, GALINA CHABAN, WEI CHEN, CHEOL HO CHOI, PAUL DAY,
     ALBERT DEFUSCO, TIM DUDLEY, DMITRI FEDOROV, GRAHAM FLETCHER,
     MARK FREITAG, KURT GLAESEMANN, DAN KEMP, GRANT MERRILL,
     NORIYUKI MINEZAWA, JONATHAN MULLIN, TAKESHI NAGATA,
     SEAN NEDD, HEATHER NETZLOFF, BOSILJKA NJEGIC, RYAN OLSON, MIKE PAK,
     JIM SHOEMAKER, LYUDMILA SLIPCHENKO, SAROM SOK, JIE SONG,
     TETSUYA TAKETSUGU, SIMON WEBB, SOOHAENG YOO, FEDERICO ZAHARIEV

  ADDITIONAL CODE HAS BEEN PROVIDED BY COLLABORATORS IN OTHER GROUPS:
     IOWA STATE UNIVERSITY:
          JOE IVANIC, LAIMUTIS BYTAUTAS, KLAUS RUEDENBERG
     UNIVERSITY OF TOKYO: KIMIHIKO HIRAO, TAKAHITO NAKAJIMA,
          TAKAO TSUNEDA, MUNEAKI KAMIYA, SUSUMU YANAGISAWA,
          KIYOSHI YAGI, MAHITO CHIBA, SEIKEN TOKURA, NAOAKI KAWAKAMI
     UNIVERSITY OF AARHUS: FRANK JENSEN
     UNIVERSITY OF IOWA: VISVALDAS KAIRYS, HUI LI
     NATIONAL INST. OF STANDARDS AND TECHNOLOGY: WALT STEVENS, DAVID GARMER
     UNIVERSITY OF PISA: BENEDETTA MENNUCCI, JACOPO TOMASI
     UNIVERSITY OF MEMPHIS: HENRY KURTZ, PRAKASHAN KORAMBATH
     UNIVERSITY OF ALBERTA: TOBY ZENG, MARIUSZ KLOBUKOWSKI
     UNIVERSITY OF NEW ENGLAND: MARK SPACKMAN
     MIE UNIVERSITY: HIROAKI UMEDA
     MICHIGAN STATE UNIVERSITY:
          KAROL KOWALSKI, MARTA WLOCH, JEFFREY GOUR, JESSE LUTZ,
          WEI LI, PIOTR PIECUCH
     UNIVERSITY OF SILESIA: MONIKA MUSIAL, STANISLAW KUCHARSKI
     FACULTES UNIVERSITAIRES NOTRE-DAME DE LA PAIX:
          OLIVIER QUINET, BENOIT CHAMPAGNE
     UNIVERSITY OF CALIFORNIA - SANTA BARBARA: BERNARD KIRTMAN
     INSTITUTE FOR MOLECULAR SCIENCE:
          KAZUYA ISHIMURA, MICHIO KATOUDA, AND SHIGERU NAGASE
     UNIVERSITY OF NOTRE DAME: DAN CHIPMAN
     KYUSHU UNIVERSITY:
          HARUYUKI NAKANO,
          FENG LONG GU, JACEK KORCHOWIEC, MARCIN MAKOWSKI, AND YURIKO AOKI,
          HIROTOSHI MORI AND EISAKU MIYOSHI
     PENNSYLVANIA STATE UNIVERSITY:
          TZVETELIN IORDANOV, CHET SWALINA, JONATHAN SKONE,
          SHARON HAMMES-SCHIFFER
     WASEDA UNIVERSITY:
          MASATO KOBAYASHI, TOMOKO AKAMA, TSUGUKI TOUMA,
          TAKESHI YOSHIKAWA, YASUHIRO IKABATA, HIROMI NAKAI
     NANJING UNIVERSITY: SHUHUA LI
     UNIVERSITY OF NEBRASKA:
          PEIFENG SU, DEJUN SI, NANDUN THELLAMUREGE, YALI WANG, HUI LI
     UNIVERSITY OF ZURICH:
          ROBERTO PEVERATI, KIM BALDRIDGE
     N. COPERNICUS UNIVERSITY AND JACKSON STATE UNIVERSITY:
          MARIA BARYSZ


 PARALLEL VERSION RUNNING ON     8 PROCESSORS IN     1 NODES.

 EXECUTION OF GAMESS BEGUN Sat Nov 14 12:03:31 2015

            ECHO OF THE FIRST FEW INPUT CARDS -
 INPUT CARD> $BASIS GBASIS=N31 NGAUSS=6 $END                                                
 INPUT CARD> $CONTRL SCFTYP=RHF RUNTYP=HESSIAN $END                                         
 INPUT CARD> $FORCE METHOD=ANALYTIC VIBANL=.TRUE. $END                                      
 INPUT CARD> $DATA                                                                          
 INPUT CARD>Dichloromethane - Frequencies                                                   
 INPUT CARD>C1                                                                              
 INPUT CARD>C           6.0  -3.9533181689   1.1125657814  -0.0466609875                    
 INPUT CARD>CL         17.0  -2.1219035742   1.1318605386  -0.0533011372                    
 INPUT CARD>CL         17.0  -4.6253372021  -0.4980142434   0.5091436290                    
 INPUT CARD>H           1.0  -4.2867785020   1.2789649027  -1.0486869137                    
 INPUT CARD>H           1.0  -4.2867725529   1.8615230208   0.6395054094                    
 INPUT CARD> $END                                                                           
    1000000 WORDS OF MEMORY AVAILABLE

     BASIS OPTIONS
     -------------
     GBASIS=N31          IGAUSS=       6      POLAR=NONE    
     NDFUNC=       0     NFFUNC=       0     DIFFSP=       F
     NPFUNC=       0      DIFFS=       F     BASNAM=        


     RUN TITLE
     ---------
 Dichloromethane - Frequencies                                                   

 THE POINT GROUP OF THE MOLECULE IS C1      
 THE ORDER OF THE PRINCIPAL AXIS IS     0

 ATOM      ATOMIC                      COORDINATES (BOHR)
           CHARGE         X                   Y                   Z
 C           6.0    -7.4706880815        2.1024444702       -0.0881764807
 CL         17.0    -4.0098163276        2.1389062743       -0.1007245441
 CL         17.0    -8.7406199128       -0.9411104580        0.9621419472
 H           1.0    -8.1008367388        2.4168932140       -1.9817309138
 H           1.0    -8.1008254967        3.5177684291        1.2084899914

          INTERNUCLEAR DISTANCES (ANGS.)
          ------------------------------

                1 C          2 CL         3 CL         4 H          5 H     

   1 C       0.0000000    1.8315283 *  1.8315284 *  1.0690839 *  1.0690898 *
   2 CL      1.8315283 *  0.0000000    3.0397394    2.3872821 *  2.3872675 *
   3 CL      1.8315284 *  3.0397394    0.0000000    2.3872815 *  2.3872654 *
   4 H       1.0690839 *  2.3872821 *  2.3872815 *  0.0000000    1.7858800 *
   5 H       1.0690898 *  2.3872675 *  2.3872654 *  1.7858800 *  0.0000000  

  * ... LESS THAN  3.000


     ATOMIC BASIS SET
     ----------------
 THE CONTRACTED PRIMITIVE FUNCTIONS HAVE BEEN UNNORMALIZED
 THE CONTRACTED BASIS FUNCTIONS ARE NOW NORMALIZED TO UNITY

  SHELL TYPE  PRIMITIVE        EXPONENT          CONTRACTION COEFFICIENT(S)

 C         

      1   S       1          3047.5248800    0.001834737132
      1   S       2           457.3695180    0.014037322813
      1   S       3           103.9486850    0.068842622264
      1   S       4            29.2101553    0.232184443216
      1   S       5             9.2866630    0.467941348435
      1   S       6             3.1639270    0.362311985337

      2   L       7             7.8682723   -0.119332419775    0.068999066591
      2   L       8             1.8812885   -0.160854151696    0.316423960957
      2   L       9             0.5442493    1.143456437840    0.744308290898

      3   L      10             0.1687145    1.000000000000    1.000000000000

 CL        

      4   S      11         25180.1000000    0.001832959848
      4   S      12          3780.3500000    0.014034198835
      4   S      13           860.4740000    0.069097394263
      4   S      14           242.1450000    0.237451980285
      4   S      15            77.3349000    0.483033959896
      4   S      16            26.2470000    0.339855971783

      5   L      17           491.7650000   -0.002297391417    0.003989400879
      5   L      18           116.9840000   -0.030713718938    0.030317706682
      5   L      19            37.4153000   -0.112528069386    0.129880028625
      5   L      20            13.7834000    0.045016327757    0.327951072278
      5   L      21             5.4521500    0.589353363399    0.453527099954
      5   L      22             2.2258800    0.465206286849    0.252154055573

      6   L      23             3.1864900   -0.251831288046   -0.014299314719
      6   L      24             1.1442700    0.061589315012    0.323572333073
      6   L      25             0.4203770    1.060185422549    0.743507765337

      7   L      26             0.1426570    1.000000000000    1.000000000000

 CL        

      8   S      27         25180.1000000    0.001832959848
      8   S      28          3780.3500000    0.014034198835
      8   S      29           860.4740000    0.069097394263
      8   S      30           242.1450000    0.237451980285
      8   S      31            77.3349000    0.483033959896
      8   S      32            26.2470000    0.339855971783

      9   L      33           491.7650000   -0.002297391417    0.003989400879
      9   L      34           116.9840000   -0.030713718938    0.030317706682
      9   L      35            37.4153000   -0.112528069386    0.129880028625
      9   L      36            13.7834000    0.045016327757    0.327951072278
      9   L      37             5.4521500    0.589353363399    0.453527099954
      9   L      38             2.2258800    0.465206286849    0.252154055573

     10   L      39             3.1864900   -0.251831288046   -0.014299314719
     10   L      40             1.1442700    0.061589315012    0.323572333073
     10   L      41             0.4203770    1.060185422549    0.743507765337

     11   L      42             0.1426570    1.000000000000    1.000000000000

 H         

     12   S      43            18.7311370    0.033494604338
     12   S      44             2.8253944    0.234726953484
     12   S      45             0.6401217    0.813757326146

     13   S      46             0.1612778    1.000000000000

 H         

     14   S      47            18.7311370    0.033494604338
     14   S      48             2.8253944    0.234726953484
     14   S      49             0.6401217    0.813757326146

     15   S      50             0.1612778    1.000000000000

 TOTAL NUMBER OF BASIS SET SHELLS             =   15
 NUMBER OF CARTESIAN GAUSSIAN BASIS FUNCTIONS =   39
 NUMBER OF ELECTRONS                          =   42
 CHARGE OF MOLECULE                           =    0
 SPIN MULTIPLICITY                            =    1
 NUMBER OF OCCUPIED ORBITALS (ALPHA)          =   21
 NUMBER OF OCCUPIED ORBITALS (BETA )          =   21
 TOTAL NUMBER OF ATOMS                        =    5
 THE NUCLEAR REPULSION ENERGY IS      130.5613500455

     $CONTRL OPTIONS
     ---------------
 SCFTYP=RHF          RUNTYP=HESSIAN      EXETYP=RUN     
 MPLEVL=       0     CITYP =NONE         CCTYP =NONE         VBTYP =NONE    
 DFTTYP=NONE         TDDFT =NONE    
 MULT  =       1     ICHARG=       0     NZVAR =       0     COORD =UNIQUE  
 PP    =NONE         RELWFN=NONE         LOCAL =NONE         NUMGRD=       F
 ISPHER=      -1     NOSYM =       0     MAXIT =      30     UNITS =ANGS    
 PLTORB=       F     MOLPLT=       F     AIMPAC=       F     FRIEND=        
 NPRINT=       7     IREST =       0     GEOM  =INPUT   
 NORMF =       0     NORMP =       0     ITOL  =      20     ICUT  =       9
 INTTYP=BEST         GRDTYP=BEST         QMTTOL= 1.0E-06

     $SYSTEM OPTIONS
     ---------------
  REPLICATED MEMORY=     1000000 WORDS (ON EVERY NODE).
 DISTRIBUTED MEMDDI=           0 MILLION WORDS IN AGGREGATE,
 MEMDDI DISTRIBUTED OVER   8 PROCESSORS IS           0 WORDS/PROCESSOR.
 TOTAL MEMORY REQUESTED ON EACH PROCESSOR=     1000000 WORDS.
 TIMLIM=      525600.00 MINUTES, OR     365.0 DAYS.
 PARALL= T  BALTYP=  DLB     KDIAG=    0  COREFL= F
 MXSEQ2=     300 MXSEQ3=     150

          ----------------
          PROPERTIES INPUT
          ----------------

     MOMENTS            FIELD           POTENTIAL          DENSITY
 IEMOM =       1   IEFLD =       0   IEPOT =       0   IEDEN =       0
 WHERE =COMASS     WHERE =NUCLEI     WHERE =NUCLEI     WHERE =NUCLEI  
 OUTPUT=BOTH       OUTPUT=BOTH       OUTPUT=BOTH       OUTPUT=BOTH    
 IEMINT=       0   IEFINT=       0                     IEDINT=       0
                                                       MORB  =       0
          EXTRAPOLATION IN EFFECT
          SOSCF IN EFFECT
 ORBITAL PRINTING OPTION: NPREO=     1    39     2     1

     -------------------------------
     INTEGRAL TRANSFORMATION OPTIONS
     -------------------------------
     NWORD  =            0
     CUTOFF = 1.0E-09     MPTRAN =       0
     DIRTRF =       F     AOINTS =DUP     

          ----------------------
          INTEGRAL INPUT OPTIONS
          ----------------------
 NOPK  =       1 NORDER=       0 SCHWRZ=       F

     ------------------------------------------
     THE POINT GROUP IS C1 , NAXIS= 0, ORDER= 1
     ------------------------------------------

     DIMENSIONS OF THE SYMMETRY SUBSPACES ARE
 A   =   39

 ..... DONE SETTING UP THE RUN .....
 CPU     0: STEP CPU TIME=     0.01 TOTAL CPU TIME=        0.0 (    0.0 MIN)
 TOTAL WALL CLOCK TIME=        0.0 SECONDS, CPU UTILIZATION IS 100.00%

     ---------------------------------
     HESSIAN MATRIX CONTROL PARAMETERS
     ---------------------------------
     METHOD=ANALYTIC   NVIB  =       2   VIBSIZ= 0.01000
     RDHESS=       F   PURIFY=       F   PRTIFC=       F
     VIBANL=       T   DECOMP=       F   PROJCT=       F
     SCLFAC= 1.00000   PRTSCN=       F   NPRT  =       0
     PULCOR=       F   NPUN  =       0   REDOVB=       T
     THERMOCHEMISTRY WILL BE PRINTED FOR    1 TEMPERATURES:
      298.15000

     ------------------------------
     CPHF RESPONSE SOLUTION OPTIONS
     ------------------------------
     POLAR  =       F     NWORD  =       0
     CPHF   =AO      

          ********************
          1 ELECTRON INTEGRALS
          ********************
 ...... END OF ONE-ELECTRON INTEGRALS ......
 CPU     0: STEP CPU TIME=     0.00 TOTAL CPU TIME=        0.0 (    0.0 MIN)
 TOTAL WALL CLOCK TIME=        0.0 SECONDS, CPU UTILIZATION IS  50.00%

          -------------
          GUESS OPTIONS
          -------------
          GUESS =HUCKEL            NORB  =       0          NORDER=       0
          MIX   =       F          PRTMO =       F          PUNMO =       F
          TOLZ  = 1.0E-08          TOLE  = 1.0E-05
          SYMDEN=       F          PURIFY=       F

 INITIAL GUESS ORBITALS GENERATED BY HUCKEL   ROUTINE.
 HUCKEL GUESS REQUIRES     17423 WORDS.

 SYMMETRIES FOR INITIAL GUESS ORBITALS FOLLOW.   BOTH SET(S).
    21 ORBITALS ARE OCCUPIED (   11 CORE ORBITALS).
    12=A       13=A       14=A       15=A       16=A       17=A       18=A   
    19=A       20=A       21=A       22=A       23=A       24=A       25=A   
    26=A       27=A       28=A       29=A       30=A       31=A   
 ...... END OF INITIAL ORBITAL SELECTION ......
 CPU     0: STEP CPU TIME=     0.01 TOTAL CPU TIME=        0.0 (    0.0 MIN)
 TOTAL WALL CLOCK TIME=        0.0 SECONDS, CPU UTILIZATION IS 100.00%

                    ----------------------
                    AO INTEGRAL TECHNOLOGY
                    ----------------------
     S,P,L SHELL ROTATED AXIS INTEGRALS, REPROGRAMMED BY
        KAZUYA ISHIMURA (IMS) AND JOSE SIERRA (SYNSTAR).
     S,P,D,L SHELL ROTATED AXIS INTEGRALS PROGRAMMED BY
        KAZUYA ISHIMURA (INSTITUTE FOR MOLECULAR SCIENCE).
     S,P,D,F,G SHELL TO TOTAL QUARTET ANGULAR MOMENTUM SUM 5,
        ERIC PROGRAM BY GRAHAM FLETCHER (ELORET AND NASA ADVANCED
        SUPERCOMPUTING DIVISION, AMES RESEARCH CENTER).
     S,P,D,F,G,L SHELL GENERAL RYS QUADRATURE PROGRAMMED BY
        MICHEL DUPUIS (PACIFIC NORTHWEST NATIONAL LABORATORY).

          --------------------
          2 ELECTRON INTEGRALS
          --------------------

 THE -PK- OPTION IS OFF, THE INTEGRALS ARE NOT IN SUPERMATRIX FORM.
 STORING   15000 INTEGRALS/RECORD ON DISK, USING 12 BYTES/INTEGRAL.
 TWO ELECTRON INTEGRAL EVALUATION REQUIRES   89476 WORDS OF MEMORY.
 II,JST,KST,LST =  1  1  1  1 NREC =         1 INTLOC =    1
 II,JST,KST,LST =  2  1  1  1 NREC =         1 INTLOC =    2
 II,JST,KST,LST =  3  1  1  1 NREC =         1 INTLOC =    2
 II,JST,KST,LST =  4  1  1  1 NREC =         1 INTLOC =   55
 II,JST,KST,LST =  5  1  1  1 NREC =         1 INTLOC =   55
 II,JST,KST,LST =  6  1  1  1 NREC =         1 INTLOC = 1599
 II,JST,KST,LST =  7  1  1  1 NREC =         1 INTLOC = 1599
 II,JST,KST,LST =  8  1  1  1 NREC =         1 INTLOC = 1599
 II,JST,KST,LST =  9  1  1  1 NREC =         1 INTLOC = 1599
 II,JST,KST,LST = 10  1  1  1 NREC =         1 INTLOC = 3336
 II,JST,KST,LST = 11  1  1  1 NREC =         1 INTLOC = 9879
 II,JST,KST,LST = 12  1  1  1 NREC =         3 INTLOC = 5708
 II,JST,KST,LST = 13  1  1  1 NREC =         3 INTLOC = 5708
 II,JST,KST,LST = 14  1  1  1 NREC =         3 INTLOC =10449
 II,JST,KST,LST = 15  1  1  1 NREC =         3 INTLOC =13193
 TOTAL NUMBER OF NONZERO TWO-ELECTRON INTEGRALS =              261864
         23 INTEGRAL RECORDS WERE STORED ON DISK FILE  8.
  ...... END OF TWO-ELECTRON INTEGRALS .....
 CPU     0: STEP CPU TIME=     0.02 TOTAL CPU TIME=        0.0 (    0.0 MIN)
 TOTAL WALL CLOCK TIME=        0.1 SECONDS, CPU UTILIZATION IS  80.00%

          --------------------------
                 RHF SCF CALCULATION
          --------------------------

     NUCLEAR ENERGY =       130.5613500455
     MAXIT =   30     NPUNCH=    2
     EXTRAP=T  DAMP=F  SHIFT=F  RSTRCT=F  DIIS=F  DEM=F  SOSCF=T
     DENSITY MATRIX CONV=  1.00E-05
     SOSCF WILL OPTIMIZE     378 ORBITAL ROTATIONS, SOGTOL=   0.250
     MEMORY REQUIRED FOR RHF ITERS=     42705 WORDS.

 ITER EX DEM     TOTAL ENERGY        E CHANGE  DENSITY CHANGE     ORB. GRAD
   1  0  0     -957.5641105706  -957.5641105706   0.347945184   0.000000000
          ---------------START SECOND ORDER SCF---------------
   2  1  0     -957.9031953836    -0.3390848130   0.094495606   0.050413328
   3  2  0     -957.9182225192    -0.0150271356   0.029686619   0.019413007
   4  3  0     -957.9218817054    -0.0036591862   0.005312105   0.002751175
   5  4  0     -957.9219784487    -0.0000967433   0.001830372   0.000774342
   6  5  0     -957.9219873585    -0.0000089099   0.000455142   0.000160058
   7  6  0     -957.9219877674    -0.0000004089   0.000132239   0.000034797
   8  7  0     -957.9219877943    -0.0000000269   0.000023147   0.000007670
   9  8  0     -957.9219877952    -0.0000000009   0.000005717   0.000002331
  10  9  0     -957.9219877953    -0.0000000001   0.000001365   0.000000538

          -----------------
          DENSITY CONVERGED
          -----------------
     TIME TO FORM FOCK OPERATORS=       0.0 SECONDS (       0.0 SEC/ITER)
     TIME TO SOLVE SCF EQUATIONS=       0.0 SECONDS (       0.0 SEC/ITER)

 FINAL RHF ENERGY IS     -957.9219877953 AFTER  10 ITERATIONS

          ------------
          EIGENVECTORS
          ------------

                      1          2          3          4          5
                 -104.8375  -104.8375   -11.3860   -10.5779   -10.5779
                     A          A          A          A          A   
    1  C  1  S    0.000000  -0.000022   0.996358  -0.000001  -0.000150
    2  C  1  S    0.000000  -0.000101   0.025270   0.000001   0.000306
    3  C  1  X    0.000069   0.000027   0.000553  -0.000179  -0.000047
    4  C  1  Y    0.000045  -0.000038  -0.000759  -0.000116   0.000066
    5  C  1  Z   -0.000016   0.000013   0.000262   0.000040  -0.000023
    6  C  1  S    0.000000   0.000038  -0.016525   0.000000  -0.000135
    7  C  1  X   -0.000494  -0.000144  -0.000524   0.001356   0.000391
    8  C  1  Y   -0.000320   0.000203   0.000719   0.000880  -0.000546
    9  C  1  Z    0.000110  -0.000070  -0.000248  -0.000304   0.000188
   10  CL 2  S    0.707976   0.701326  -0.000036  -0.203519  -0.202116
   11  CL 2  S    0.008939   0.008867   0.000085   0.731674   0.726527
   12  CL 2  X   -0.000070  -0.000062   0.000035  -0.006792  -0.006762
   13  CL 2  Y   -0.000011   0.000006   0.000003   0.000124   0.000078
   14  CL 2  Z    0.000004  -0.000002  -0.000001  -0.000043  -0.000027
   15  CL 2  S   -0.002912  -0.002652  -0.000150   0.016445   0.015688
   16  CL 2  X    0.000130   0.000078  -0.000365  -0.001135  -0.001002
   17  CL 2  Y    0.000061  -0.000034  -0.000017  -0.000158   0.000099
   18  CL 2  Z   -0.000021   0.000012   0.000006   0.000055  -0.000034
   19  CL 2  S    0.002001   0.001428   0.002684  -0.006022  -0.004407
   20  CL 2  X   -0.000567  -0.000196  -0.001704   0.001825   0.000794
   21  CL 2  Y   -0.000117   0.000070  -0.000132   0.000328  -0.000201
   22  CL 2  Z    0.000040  -0.000024   0.000046  -0.000113   0.000069
   23  CL 3  S   -0.701319   0.707983  -0.000036   0.202097  -0.203538
   24  CL 3  S   -0.008855   0.008951   0.000085  -0.726563   0.731638
   25  CL 3  X   -0.000035   0.000016  -0.000015  -0.002283   0.002350
   26  CL 3  Y   -0.000057   0.000057  -0.000030  -0.006000   0.006042
   27  CL 3  Z    0.000020  -0.000020   0.000010   0.002071  -0.002085
   28  CL 3  S    0.002887  -0.002679  -0.000150  -0.016334   0.015803
   29  CL 3  X    0.000106   0.000005   0.000147  -0.000559   0.000264
   30  CL 3  Y    0.000092  -0.000082   0.000316  -0.000940   0.000927
   31  CL 3  Z   -0.000032   0.000028  -0.000109   0.000324  -0.000320
   32  CL 3  S   -0.001988   0.001447   0.002684   0.005991  -0.004449
   33  CL 3  X   -0.000318   0.000004   0.000738   0.000974  -0.000091
   34  CL 3  Y   -0.000457   0.000202   0.001458   0.001489  -0.000783
   35  CL 3  Z    0.000158  -0.000070  -0.000503  -0.000514   0.000270
   36  H  4  S    0.000000   0.000042   0.000175   0.000000  -0.000084
   37  H  4  S   -0.000002  -0.000352   0.002881   0.000004   0.001004
   38  H  5  S    0.000000   0.000042   0.000175   0.000000  -0.000084
   39  H  5  S   -0.000002  -0.000352   0.002881   0.000004   0.001004

                      6          7          8          9         10
                   -8.0463    -8.0463    -8.0420    -8.0420    -8.0419
                     A          A          A          A          A   
    1  C  1  S   -0.000123   0.000001   0.000000   0.000008   0.000000
    2  C  1  S   -0.000759   0.000008  -0.000002   0.000106   0.000000
    3  C  1  X    0.000189   0.000535  -0.000102  -0.000004   0.000000
    4  C  1  Y   -0.000249   0.000352  -0.000066   0.000002   0.000000
    5  C  1  Z    0.000086  -0.000121   0.000023  -0.000001  -0.000001
    6  C  1  S    0.001708  -0.000017   0.000004  -0.000232   0.000000
    7  C  1  X   -0.000179  -0.000827   0.000175  -0.000085   0.000000
    8  C  1  Y    0.000228  -0.000542   0.000111   0.000123   0.000000
    9  C  1  Z   -0.000079   0.000187  -0.000038  -0.000042   0.000001
   10  CL 2  S   -0.002095  -0.002066   0.000068  -0.000082   0.000000
   11  CL 2  S    0.007685   0.007463  -0.000302   0.000257   0.000000
   12  CL 2  X    0.708790   0.694754  -0.016376   0.015854  -0.000008
   13  CL 2  Y    0.015382   0.015032   0.675142  -0.652561   0.232404
   14  CL 2  Z   -0.005300  -0.005180  -0.232988   0.225196   0.673450
   15  CL 2  S   -0.001086  -0.001634  -0.000300  -0.000266   0.000000
   16  CL 2  X    0.016377   0.015981  -0.000245   0.000318   0.000000
   17  CL 2  Y    0.000340   0.000459   0.013921  -0.013314   0.004759
   18  CL 2  Z   -0.000117  -0.000158  -0.004804   0.004595   0.013791
   19  CL 2  S    0.000283   0.002117   0.000532   0.000589   0.000000
   20  CL 2  X   -0.003956  -0.005024  -0.000235  -0.000382   0.000000
   21  CL 2  Y    0.000151  -0.000492  -0.003524   0.002819  -0.001116
   22  CL 2  Z   -0.000052   0.000170   0.001216  -0.000973  -0.003233
   23  CL 3  S   -0.002054   0.002108  -0.000065  -0.000084   0.000000
   24  CL 3  S    0.007534  -0.007616   0.000293   0.000267   0.000000
   25  CL 3  X   -0.262590   0.267872   0.639296   0.661450   0.000001
   26  CL 3  Y   -0.608187   0.620542  -0.246627  -0.255201  -0.225928
   27  CL 3  Z    0.209884  -0.214148   0.085112   0.088070  -0.654678
   28  CL 3  S   -0.001053   0.001655   0.000309  -0.000256   0.000000
   29  CL 3  X   -0.006051   0.006274   0.013220   0.013503   0.000000
   30  CL 3  Y   -0.014060   0.014235  -0.005006  -0.005202  -0.004628
   31  CL 3  Z    0.004852  -0.004912   0.001728   0.001795  -0.013409
   32  CL 3  S    0.000241  -0.002122  -0.000552   0.000571   0.000000
   33  CL 3  X    0.001216  -0.002302  -0.003475  -0.002770   0.000000
   34  CL 3  Y    0.003461  -0.004332   0.001003   0.001378   0.001087
   35  CL 3  Z   -0.001195   0.001495  -0.000346  -0.000475   0.003149
   36  H  4  S   -0.000200   0.000002  -0.000001   0.000054   0.000001
   37  H  4  S   -0.001338   0.000013   0.000007  -0.000420  -0.000008
   38  H  5  S   -0.000200   0.000002  -0.000001   0.000054  -0.000001
   39  H  5  S   -0.001338   0.000013   0.000007  -0.000420   0.000008

                     11         12         13         14         15
                   -8.0419    -1.1934    -1.0996    -0.9184    -0.6966
                     A          A          A          A          A   
    1  C  1  S    0.000000  -0.126803   0.000000  -0.153206   0.000000
    2  C  1  S    0.000000   0.228081   0.000000   0.299105  -0.000001
    3  C  1  X    0.000000   0.023408   0.103742  -0.084167   0.000004
    4  C  1  Y   -0.000018  -0.032128   0.067542   0.115520   0.148441
    5  C  1  Z   -0.000051   0.011088  -0.023308  -0.039866   0.430176
    6  C  1  S    0.000000   0.291039   0.000000   0.390570   0.000006
    7  C  1  X    0.000000   0.015997   0.032121  -0.017541   0.000003
    8  C  1  Y    0.000030  -0.021956   0.020913   0.024075   0.080442
    9  C  1  Z    0.000086   0.007579  -0.007217  -0.008307   0.233121
   10  CL 2  S    0.000000   0.044702   0.056942  -0.035022  -0.000001
   11  CL 2  S    0.000000  -0.202790  -0.260222   0.161188   0.000002
   12  CL 2  X   -0.000008   0.038575   0.021544   0.038744   0.000003
   13  CL 2  Y    0.225932   0.001788  -0.003593  -0.006410  -0.019782
   14  CL 2  Z    0.654697  -0.000617   0.001240   0.002212  -0.057328
   15  CL 2  S    0.000000   0.404790   0.516224  -0.322151  -0.000005
   16  CL 2  X    0.000000  -0.089734  -0.052612  -0.091319  -0.000008
   17  CL 2  Y    0.004594  -0.004339   0.009075   0.015763   0.050038
   18  CL 2  Z    0.013312   0.001497  -0.003132  -0.005440   0.145008
   19  CL 2  S    0.000000   0.124770   0.227170  -0.208357  -0.000006
   20  CL 2  X    0.000000   0.007276  -0.012577   0.003555  -0.000001
   21  CL 2  Y   -0.001014   0.003383  -0.001854   0.003357   0.014987
   22  CL 2  Z   -0.002940  -0.001167   0.000640  -0.001159   0.043432
   23  CL 3  S    0.000000   0.044702  -0.056942  -0.035022  -0.000001
   24  CL 3  S    0.000000  -0.202790   0.260222   0.161189   0.000003
   25  CL 3  X   -0.000001  -0.015521   0.004130  -0.007478  -0.000002
   26  CL 3  Y    0.232413  -0.033431   0.020308  -0.036503  -0.019785
   27  CL 3  Z    0.673467   0.011537  -0.007008   0.012597  -0.057326
   28  CL 3  S    0.000000   0.404789  -0.516224  -0.322151  -0.000005
   29  CL 3  X    0.000000   0.036281  -0.009789   0.016979   0.000004
   30  CL 3  Y    0.004726   0.077703  -0.049701   0.086270   0.050047
   31  CL 3  Z    0.013696  -0.026815   0.017152  -0.029772   0.145006
   32  CL 3  S    0.000000   0.124770  -0.227170  -0.208357  -0.000006
   33  CL 3  X    0.000000  -0.005938  -0.006317  -0.004586   0.000001
   34  CL 3  Y   -0.001046  -0.005220  -0.010447  -0.001943   0.014988
   35  CL 3  Z   -0.003030   0.001801   0.003605   0.000670   0.043431
   36  H  4  S    0.000056   0.063627   0.000000   0.158305  -0.218393
   37  H  4  S   -0.000597  -0.009736   0.000000   0.044334  -0.102499
   38  H  5  S   -0.000056   0.063627   0.000000   0.158301   0.218390
   39  H  5  S    0.000597  -0.009738   0.000000   0.044333   0.102498

                     16         17         18         19         20
                   -0.6075    -0.5696    -0.4772    -0.4726    -0.4583
                     A          A          A          A          A   
    1  C  1  S   -0.023001   0.000000   0.000000   0.003502   0.000000
    2  C  1  S    0.003122   0.000000   0.000000  -0.027710  -0.000002
    3  C  1  X    0.198601  -0.269546  -0.000001   0.093938   0.000007
    4  C  1  Y   -0.272584  -0.175491  -0.000001  -0.128929  -0.059547
    5  C  1  Z    0.094057   0.060559   0.000000   0.044501  -0.172529
    6  C  1  S    0.206140   0.000000   0.000000   0.061382   0.000001
    7  C  1  X    0.141630  -0.214678  -0.000001   0.038766   0.000004
    8  C  1  Y   -0.194390  -0.139768   0.000000  -0.053208  -0.010029
    9  C  1  Z    0.067079   0.048232   0.000000   0.018361  -0.029042
   10  CL 2  S   -0.012385   0.012938   0.000000  -0.001362   0.000000
   11  CL 2  S    0.059398  -0.061121   0.000000   0.007047   0.000000
   12  CL 2  X    0.115135  -0.153811   0.000002   0.078586   0.000007
   13  CL 2  Y    0.079185   0.055412  -0.065507  -0.165323  -0.061685
   14  CL 2  Z   -0.027322  -0.019124  -0.189822   0.057064  -0.178722
   15  CL 2  S   -0.111186   0.119928   0.000000  -0.010561   0.000000
   16  CL 2  X   -0.288891   0.389078  -0.000005  -0.203362  -0.000019
   17  CL 2  Y   -0.202094  -0.143623   0.170227   0.429254   0.160906
   18  CL 2  Z    0.069730   0.049567   0.493275  -0.148163   0.466202
   19  CL 2  S   -0.164581   0.165121   0.000001  -0.028278  -0.000002
   20  CL 2  X   -0.065178   0.117367  -0.000003  -0.089167  -0.000009
   21  CL 2  Y   -0.082590  -0.055913   0.095776   0.249190   0.091496
   22  CL 2  Z    0.028497   0.019296   0.277535  -0.086010   0.265094
   23  CL 3  S   -0.012385  -0.012938   0.000000  -0.001362   0.000000
   24  CL 3  S    0.059397   0.061121   0.000000   0.007047   0.000000
   25  CL 3  X   -0.119311  -0.000072  -0.000001   0.135382   0.000007
   26  CL 3  Y   -0.073451  -0.155598   0.065507  -0.128346  -0.061686
   27  CL 3  Z    0.025350   0.053697   0.189821   0.044303  -0.178723
   28  CL 3  S   -0.111185  -0.119928   0.000000  -0.010561   0.000000
   29  CL 3  X    0.302734  -0.003230   0.000003  -0.351758  -0.000018
   30  CL 3  Y    0.183086   0.394830  -0.170228   0.332641   0.160909
   31  CL 3  Z   -0.063189  -0.136255  -0.493273  -0.114823   0.466203
   32  CL 3  S   -0.164580  -0.165121  -0.000001  -0.028278  -0.000002
   33  CL 3  X    0.104864  -0.013417   0.000002  -0.214501  -0.000012
   34  CL 3  Y    0.028117   0.123590  -0.095777   0.167591   0.091496
   35  CL 3  Z   -0.009706  -0.042650  -0.277534  -0.057851   0.265096
   36  H  4  S   -0.109479   0.000000   0.000000  -0.084397   0.124642
   37  H  4  S   -0.077179   0.000000   0.000000  -0.097292   0.144173
   38  H  5  S   -0.109485   0.000000   0.000000  -0.084383  -0.124654
   39  H  5  S   -0.077186   0.000000  -0.000001  -0.097276  -0.144185

                     21         22         23         24         25
                   -0.4529     0.1240     0.1768     0.2307     0.2597
                     A          A          A          A          A   
    1  C  1  S    0.000000  -0.145090   0.000000  -0.082578   0.000003
    2  C  1  S    0.000000   0.184729   0.000000   0.026625  -0.000002
    3  C  1  X   -0.076392   0.168360   0.385032  -0.167249   0.000010
    4  C  1  Y   -0.049735  -0.231078   0.250678   0.229558   0.111972
    5  C  1  Z    0.017163   0.079740  -0.086505  -0.079198   0.324524
    6  C  1  S    0.000000   1.580458   0.000002   1.885989  -0.000091
    7  C  1  X   -0.025390   0.376118   1.005452  -0.589858   0.000047
    8  C  1  Y   -0.016530  -0.516231   0.654607   0.809614   0.516423
    9  C  1  Z    0.005704   0.178141  -0.225894  -0.279296   1.496729
   10  CL 2  S    0.000228  -0.012853  -0.017687   0.011596   0.000000
   11  CL 2  S   -0.001916   0.068596   0.083886  -0.033926   0.000002
   12  CL 2  X   -0.064416  -0.123060  -0.109764   0.031330  -0.000002
   13  CL 2  Y   -0.183973  -0.022935   0.025036   0.007843   0.000772
   14  CL 2  Z    0.063487   0.007913  -0.008641  -0.002706   0.002237
   15  CL 2  S   -0.001118  -0.103426  -0.180559   0.190836  -0.000006
   16  CL 2  X    0.167597   0.322973   0.291675  -0.091000   0.000006
   17  CL 2  Y    0.479980   0.062804  -0.071870  -0.016747   0.002128
   18  CL 2  Z   -0.165637  -0.021668   0.024805   0.005779   0.006165
   19  CL 2  S    0.011943  -0.487735  -0.559502  -0.044311  -0.000015
   20  CL 2  X    0.081459   0.679649   0.745007  -0.076489   0.000021
   21  CL 2  Y    0.273973   0.097744  -0.090754  -0.117429  -0.073372
   22  CL 2  Z   -0.094546  -0.033721   0.031327   0.040512  -0.212657
   23  CL 3  S   -0.000228  -0.012853   0.017687   0.011596   0.000000
   24  CL 3  S    0.001916   0.068596  -0.083886  -0.033926   0.000002
   25  CL 3  X   -0.204796   0.066542  -0.014390  -0.018921   0.000001
   26  CL 3  Y    0.008701   0.100506  -0.105866  -0.024874   0.000774
   27  CL 3  Z   -0.003004  -0.034685   0.036534   0.008584   0.002237
   28  CL 3  S    0.001118  -0.103426   0.180559   0.190836  -0.000006
   29  CL 3  X    0.534142  -0.177220   0.032957   0.048995  -0.000003
   30  CL 3  Y   -0.023109  -0.262850   0.283224   0.074397   0.002123
   31  CL 3  Z    0.007979   0.090710  -0.097740  -0.025674   0.006167
   32  CL 3  S   -0.011943  -0.487735   0.559502  -0.044314  -0.000016
   33  CL 3  X    0.299825  -0.338918   0.175919   0.143327  -0.000019
   34  CL 3  Y   -0.025737  -0.565400   0.690327   0.025681  -0.073398
   35  CL 3  Z    0.008884   0.195120  -0.238231  -0.008873  -0.212647
   36  H  4  S    0.000000  -0.006018   0.000000  -0.042460   0.063499
   37  H  4  S    0.000000  -0.248987  -0.000001  -1.498469   1.719323
   38  H  5  S    0.000000  -0.006014   0.000000  -0.042471  -0.063496
   39  H  5  S    0.000000  -0.248970  -0.000002  -1.498625  -1.719142

                     26         27         28         29         30
                    0.5310     0.5904     0.6100     0.6173     0.6429
                     A          A          A          A          A   
    1  C  1  S    0.004205   0.000000   0.000000   0.006747   0.000000
    2  C  1  S    0.086023   0.000000  -0.000005  -0.230920  -0.000001
    3  C  1  X   -0.015546   0.211828  -0.000002  -0.052863   0.069439
    4  C  1  Y    0.021340   0.137912  -0.017251   0.072554   0.045210
    5  C  1  Z   -0.007354  -0.047591  -0.049997  -0.025043  -0.015601
    6  C  1  S   -0.463324   0.000000   0.000030   0.802888   0.000006
    7  C  1  X   -0.421232   0.115580   0.000010   0.111671   0.319242
    8  C  1  Y    0.578144   0.075250   0.042305  -0.153268   0.207839
    9  C  1  Z   -0.199523  -0.025967   0.122643   0.052901  -0.071723
   10  CL 2  S   -0.049205   0.039868   0.000000  -0.016745   0.007489
   11  CL 2  S    0.072527  -0.061937   0.000001   0.032449   0.003764
   12  CL 2  X    0.008172  -0.134901   0.000005   0.149948   0.133657
   13  CL 2  Y   -0.085351  -0.066537   0.068367   0.134939  -0.149887
   14  CL 2  Z    0.029453   0.022960   0.198112  -0.046570   0.051726
   15  CL 2  S   -1.073445   0.864090  -0.000008  -0.344419   0.215185
   16  CL 2  X   -0.025197   0.497890  -0.000020  -0.568091  -0.541322
   17  CL 2  Y    0.321910   0.264968  -0.264660  -0.513832   0.589718
   18  CL 2  Z   -0.111084  -0.091435  -0.766930   0.177335  -0.203511
   19  CL 2  S    1.447107  -0.990235  -0.000002   0.209656  -0.472221
   20  CL 2  X   -0.317708  -0.373196   0.000031   0.734286   0.861373
   21  CL 2  Y   -0.360409  -0.327306   0.269424   0.496173  -0.670021
   22  CL 2  Z    0.124368   0.112949   0.780728  -0.171242   0.231226
   23  CL 3  S   -0.049205  -0.039868   0.000000  -0.016745  -0.007488
   24  CL 3  S    0.072527   0.061937   0.000001   0.032449  -0.003764
   25  CL 3  X    0.081443  -0.113858  -0.000003  -0.186829  -0.100488
   26  CL 3  Y   -0.037647  -0.095419   0.068361  -0.084322   0.171479
   27  CL 3  Z    0.012991   0.032928   0.198114   0.029093  -0.059176
   28  CL 3  S   -1.073444  -0.864090  -0.000007  -0.344420  -0.215182
   29  CL 3  X   -0.309175   0.439392   0.000011   0.710392   0.389849
   30  CL 3  Y    0.137025   0.345255  -0.264639   0.318533  -0.688324
   31  CL 3  Z   -0.047282  -0.119144  -0.766935  -0.109901   0.237537
   32  CL 3  S    1.447105   0.990235  -0.000004   0.209656   0.472213
   33  CL 3  X    0.469481  -0.456547  -0.000016  -0.752193  -0.355112
   34  CL 3  Y    0.152093  -0.212903   0.269390  -0.471610   0.999611
   35  CL 3  Z   -0.052489   0.073469   0.780737   0.162724  -0.344960
   36  H  4  S   -0.083579   0.000000   0.131491  -0.078163   0.000001
   37  H  4  S   -0.349651   0.000000   0.173831  -0.012783   0.000002
   38  H  5  S   -0.083575   0.000000  -0.131488  -0.078163   0.000001
   39  H  5  S   -0.349655   0.000000  -0.173823  -0.012768   0.000001

                     31         32         33         34         35
                    0.6572     0.6598     0.7584     0.7992     0.8118
                     A          A          A          A          A   
    1  C  1  S   -0.019424   0.000000  -0.031795   0.000001   0.000000
    2  C  1  S    0.312315  -0.000002  -0.074127   0.000026   0.000001
    3  C  1  X    0.056435   0.000000   0.539427  -0.000019   0.093492
    4  C  1  Y   -0.077454   0.000000  -0.740390  -0.280855   0.060866
    5  C  1  Z    0.026743  -0.000001   0.255457  -0.813948  -0.021007
    6  C  1  S   -0.995880   0.000008   0.694477  -0.000099   0.000000
    7  C  1  X   -0.330698   0.000004  -0.999761   0.000045   0.446956
    8  C  1  Y    0.453883  -0.000001   1.372216   0.741835   0.291001
    9  C  1  Z   -0.156664   0.000001  -0.473452   2.149924  -0.100410
   10  CL 2  S   -0.017038   0.000000   0.006388  -0.000001   0.040523
   11  CL 2  S    0.007946   0.000000  -0.003278   0.000001  -0.025966
   12  CL 2  X   -0.152787   0.000000   0.005188  -0.000004   0.104950
   13  CL 2  Y    0.123858   0.069087  -0.002550  -0.006791   0.110514
   14  CL 2  Z   -0.042737   0.200200   0.000879  -0.019679  -0.038137
   15  CL 2  S   -0.428589   0.000005   0.169423  -0.000029   1.010714
   16  CL 2  X    0.596981   0.000000  -0.080805   0.000021  -0.471434
   17  CL 2  Y   -0.487905  -0.272863   0.025417   0.037574  -0.465012
   18  CL 2  Z    0.168349  -0.790707  -0.008768   0.108888   0.160470
   19  CL 2  S    0.855556  -0.000009   0.116325   0.000022  -1.557925
   20  CL 2  X   -1.034390   0.000004  -0.015283  -0.000021   1.082571
   21  CL 2  Y    0.491713   0.305838  -0.294375  -0.190130   0.640606
   22  CL 2  Z   -0.169657   0.886263   0.101562  -0.551015  -0.221063
   23  CL 3  S   -0.017038   0.000000   0.006388  -0.000001  -0.040523
   24  CL 3  S    0.007946   0.000000  -0.003278   0.000001   0.025966
   25  CL 3  X   -0.067942   0.000001   0.000670   0.000000   0.146644
   26  CL 3  Y    0.179100  -0.069089  -0.005491  -0.006787   0.053288
   27  CL 3  Z   -0.061803  -0.200200   0.001894  -0.019680  -0.018389
   28  CL 3  S   -0.428592   0.000002   0.169426  -0.000022  -1.010714
   29  CL 3  X    0.269378  -0.000006   0.003693  -0.000001  -0.627675
   30  CL 3  Y   -0.701201   0.272873   0.080426   0.037557  -0.250568
   31  CL 3  Z    0.241967   0.790706  -0.027752   0.108893   0.086467
   32  CL 3  S    0.855561  -0.000004   0.116321   0.000012   1.557927
   33  CL 3  X   -0.117190   0.000005   0.296383  -0.000016   1.019112
   34  CL 3  Y    1.088872  -0.305850  -0.091461  -0.190123   0.727706
   35  CL 3  Z   -0.375742  -0.886262   0.031541  -0.551014  -0.251125
   36  H  4  S   -0.090961   0.000001  -0.326609   0.397149   0.000001
   37  H  4  S   -0.328523   0.000002  -0.373468   0.625083   0.000002
   38  H  5  S   -0.090950   0.000000  -0.326635  -0.397115  -0.000002
   39  H  5  S   -0.328530   0.000003  -0.373483  -0.625030  -0.000004

                     36         37         38         39
                    0.8501     1.1559     1.1764     1.3579
                     A          A          A          A   
    1  C  1  S    0.000000  -0.000007   0.059817  -0.086525
    2  C  1  S   -0.000001   0.000172  -1.070971  -2.240183
    3  C  1  X   -0.919424  -0.000037   0.319892  -0.194768
    4  C  1  Y   -0.598595   0.271802  -0.439020   0.267324
    5  C  1  Z    0.206567   0.787477   0.151623  -0.092252
    6  C  1  S    0.000001  -0.000296   1.740907   4.938106
    7  C  1  X    1.929813   0.000054  -0.440015   0.299023
    8  C  1  Y    1.256412  -0.294917   0.603888  -0.410406
    9  C  1  Z   -0.433572  -0.854383  -0.208533   0.141674
   10  CL 2  S    0.011983   0.000001  -0.008069   0.000637
   11  CL 2  S    0.000958   0.000000   0.002586   0.042405
   12  CL 2  X    0.010558   0.000002  -0.012422  -0.063892
   13  CL 2  Y   -0.010383  -0.005647   0.012383  -0.009046
   14  CL 2  Z    0.003583  -0.016359  -0.004276   0.003122
   15  CL 2  S    0.314319   0.000031  -0.216172   0.143631
   16  CL 2  X    0.019840  -0.000013   0.081182   0.291474
   17  CL 2  Y    0.054389   0.028601  -0.059066   0.039191
   18  CL 2  Z   -0.018769   0.082859   0.020396  -0.013524
   19  CL 2  S   -1.304185  -0.000032   0.306336  -1.178344
   20  CL 2  X    0.708718   0.000019  -0.186097   0.654554
   21  CL 2  Y   -0.277733  -0.031864   0.050218   0.010943
   22  CL 2  Z    0.095853  -0.092315  -0.017341  -0.003774
   23  CL 3  S   -0.011983   0.000001  -0.008069   0.000637
   24  CL 3  S   -0.000958   0.000000   0.002586   0.042405
   25  CL 3  X   -0.006498   0.000001  -0.007811   0.031720
   26  CL 3  Y    0.013027  -0.005647   0.015385   0.053203
   27  CL 3  Z   -0.004496  -0.016358  -0.005312  -0.018359
   28  CL 3  S   -0.314318   0.000032  -0.216173   0.143630
   29  CL 3  X    0.060829  -0.000002   0.029438  -0.142654
   30  CL 3  Y   -0.001869   0.028608  -0.092754  -0.243451
   31  CL 3  Z    0.000645   0.082856   0.032022   0.084011
   32  CL 3  S    1.304183  -0.000033   0.306338  -1.178345
   33  CL 3  X   -0.021821   0.000000   0.016712  -0.244183
   34  CL 3  Y    0.724940  -0.031877   0.182259  -0.574185
   35  CL 3  Z   -0.250176  -0.092311  -0.062906   0.198145
   36  H  4  S    0.000000   0.886834   0.815469  -0.472894
   37  H  4  S    0.000000  -1.293670  -1.295488  -0.585367
   38  H  5  S    0.000001  -0.887045   0.815225  -0.472935
   39  H  5  S    0.000003   1.294045  -1.295122  -0.585364
 ...... END OF RHF CALCULATION ......
 CPU     0: STEP CPU TIME=     0.04 TOTAL CPU TIME=        0.1 (    0.0 MIN)
 TOTAL WALL CLOCK TIME=        0.1 SECONDS, CPU UTILIZATION IS  66.67%

     ----------------------------------------------------------------
     PROPERTY VALUES FOR THE RHF   SELF-CONSISTENT FIELD WAVEFUNCTION
     ----------------------------------------------------------------

          -----------------
          ENERGY COMPONENTS
          -----------------

         WAVEFUNCTION NORMALIZATION =       1.0000000000

                ONE ELECTRON ENERGY =   -1582.1202137489
                TWO ELECTRON ENERGY =     493.6368759082
           NUCLEAR REPULSION ENERGY =     130.5613500455
                                      ------------------
                       TOTAL ENERGY =    -957.9219877953

 ELECTRON-ELECTRON POTENTIAL ENERGY =     493.6368759082
  NUCLEUS-ELECTRON POTENTIAL ENERGY =   -2540.3872881452
   NUCLEUS-NUCLEUS POTENTIAL ENERGY =     130.5613500455
                                      ------------------
             TOTAL POTENTIAL ENERGY =   -1916.1890621916
               TOTAL KINETIC ENERGY =     958.2670743963
                 VIRIAL RATIO (V/T) =       1.9996398847

          ---------------------------------------
          MULLIKEN AND LOWDIN POPULATION ANALYSES
          ---------------------------------------

     ATOMIC MULLIKEN POPULATION IN EACH MOLECULAR ORBITAL

                      1          2          3          4          5

                  2.000000   2.000000   2.000000   2.000000   2.000000

    1            -0.000022  -0.000006   1.997845   0.000459   0.000117
    2             1.009457   0.990558   0.000479   1.006779   0.992895
    3             0.990564   1.009451   0.000479   0.992762   1.006912
    4             0.000000  -0.000001   0.000598   0.000000   0.000038
    5             0.000000  -0.000001   0.000598   0.000000   0.000038

                      6          7          8          9         10

                  2.000000   2.000000   2.000000   2.000000   2.000000

    1            -0.000075   0.000076   0.000005  -0.000005   0.000000
    2             1.020051   0.979923   1.034034   0.965964   1.028262
    3             0.979973   1.020001   0.965961   1.034037   0.971738
    4             0.000026   0.000000   0.000000   0.000002   0.000000
    5             0.000026   0.000000   0.000000   0.000002   0.000000

                     11         12         13         14         15

                  2.000000   2.000000   2.000000   2.000000   2.000000

    1             0.000004   0.743282   0.131484   0.908866   1.163234
    2             0.971732   0.607820   0.934258   0.360302   0.103054
    3             1.028255   0.607819   0.934258   0.360303   0.103054
    4             0.000005   0.020540   0.000000   0.185269   0.315331
    5             0.000005   0.020538   0.000000   0.185260   0.315327

                     16         17         18         19         20

                  2.000000   2.000000   2.000000   2.000000   2.000000

    1             0.777432   0.663168   0.000000   0.087724   0.087399
    2             0.529646   0.668415   1.000005   0.915070   0.874080
    3             0.529642   0.668416   0.999995   0.915070   0.874089
    4             0.081635   0.000000   0.000000   0.041075   0.082207
    5             0.081645   0.000000   0.000000   0.041062   0.082224

                     21

                  2.000000

    1             0.023559
    2             0.988219
    3             0.988222
    4             0.000000
    5             0.000000

               ----- POPULATIONS IN EACH AO -----
                             MULLIKEN      LOWDIN
              1  C  1  S      1.99785     1.98953
              2  C  1  S      0.64474     0.59393
              3  C  1  X      0.52804     0.49132
              4  C  1  Y      0.60048     0.55424
              5  C  1  Z      0.79194     0.71828
              6  C  1  S      0.87765     0.50150
              7  C  1  X      0.34738     0.45843
              8  C  1  Y      0.37101     0.46628
              9  C  1  Z      0.42545     0.48461
             10  CL 2  S      1.99975     1.99898
             11  CL 2  S      1.99834     1.99587
             12  CL 2  X      1.99125     1.96025
             13  CL 2  Y      1.99496     1.97672
             14  CL 2  Z      1.99505     1.97706
             15  CL 2  S      1.37884     1.16716
             16  CL 2  X      0.89901     0.82483
             17  CL 2  Y      1.31610     1.24057
             18  CL 2  Z      1.32466     1.24892
             19  CL 2  S      0.57575     0.69636
             20  CL 2  X      0.19884     0.44552
             21  CL 2  Y      0.65264     0.74556
             22  CL 2  Z      0.65583     0.75054
             23  CL 3  S      1.99975     1.99898
             24  CL 3  S      1.99834     1.99587
             25  CL 3  X      1.99439     1.97426
             26  CL 3  Y      1.99215     1.96420
             27  CL 3  Z      1.99471     1.97557
             28  CL 3  S      1.37884     1.16716
             29  CL 3  X      1.25335     1.17980
             30  CL 3  Y      0.99946     0.92338
             31  CL 3  Z      1.28695     1.21115
             32  CL 3  S      0.57575     0.69636
             33  CL 3  X      0.58560     0.70049
             34  CL 3  Y      0.30704     0.51772
             35  CL 3  Z      0.61467     0.72340
             36  H  4  S      0.53554     0.51702
             37  H  4  S      0.19118     0.32557
             38  H  5  S      0.53554     0.51702
             39  H  5  S      0.19118     0.32557

          ----- MULLIKEN ATOMIC OVERLAP POPULATIONS -----
          (OFF-DIAGONAL ELEMENTS NEED TO BE MULTIPLIED BY 2)

             1           2           3           4           5

    1    5.5913067
    2    0.1466944  16.9872645
    3    0.1466944  -0.0640778  16.9872653
    4    0.3499249  -0.0444378  -0.0444379   0.4874518
    5    0.3499248  -0.0444401  -0.0444404  -0.0217769   0.4874565

          TOTAL MULLIKEN AND LOWDIN ATOMIC POPULATIONS
       ATOM         MULL.POP.    CHARGE          LOW.POP.     CHARGE
    1 C             6.584545   -0.584545         6.258131   -0.258131
    2 CL           16.981003    0.018997        17.028342   -0.028342
    3 CL           16.981004    0.018996        17.028342   -0.028342
    4 H             0.726724    0.273276         0.842592    0.157408
    5 H             0.726724    0.273276         0.842592    0.157408

          -------------------------------
          BOND ORDER AND VALENCE ANALYSIS     BOND ORDER THRESHOLD=0.050
          -------------------------------

                   BOND                       BOND                       BOND
  ATOM PAIR DIST  ORDER      ATOM PAIR DIST  ORDER      ATOM PAIR DIST  ORDER
    1   2  1.832  0.927        1   3  1.832  0.927        1   4  1.069  0.888
    1   5  1.069  0.888

                       TOTAL       BONDED        FREE
      ATOM            VALENCE     VALENCE     VALENCE
    1 C                 3.629       3.629       0.000
    2 CL                0.922       0.922       0.000
    3 CL                0.922       0.922       0.000
    4 H                 0.866       0.866       0.000
    5 H                 0.866       0.866       0.000

          ---------------------
          ELECTROSTATIC MOMENTS
          ---------------------

 POINT   1           X           Y           Z (BOHR)    CHARGE
                -6.573231    0.870674    0.336918        0.00 (A.U.)
         DX          DY          DZ         /D/  (DEBYE)
    -1.405191    1.928651   -0.665571    2.477345
 ...... END OF PROPERTY EVALUATION ......
 CPU     0: STEP CPU TIME=     0.01 TOTAL CPU TIME=        0.1 (    0.0 MIN)
 TOTAL WALL CLOCK TIME=        0.1 SECONDS, CPU UTILIZATION IS  69.23%

     ---------------------------------------------
     1ST AND 2ND INTEGRAL DERIVATIVE CONTRIBUTIONS
     ---------------------------------------------
 ...... END OF 1-ELECTRON GRAD+HESS+FOCKDER ......
 CPU     0: STEP CPU TIME=     0.00 TOTAL CPU TIME=        0.1 (    0.0 MIN)
 TOTAL WALL CLOCK TIME=        0.1 SECONDS, CPU UTILIZATION IS  64.29%

     ----------------------------------------------
     TWO ELECTRON INTEGRAL DERIVATIVE CONTRIBUTIONS
     ----------------------------------------------

      25680 WORDS REQUIRED,   1000000 WORDS AVAILABLE
 THE COARSE/FINE SCHWARZ SCREENINGS SKIPPED          0/         0 BLOCKS.
 THE NUMBER OF DERIVATIVE INTEGRAL BLOCKS COMPUTED WAS      7117
 CPU     0: STEP CPU TIME=     0.48 TOTAL CPU TIME=        0.6 (    0.0 MIN)
 TOTAL WALL CLOCK TIME=        0.7 SECONDS, CPU UTILIZATION IS  86.36%
 ...... END OF 2-ELECTRON GRAD+HESS+FOCKDER ......
 CPU     0: STEP CPU TIME=     0.00 TOTAL CPU TIME=        0.6 (    0.0 MIN)
 TOTAL WALL CLOCK TIME=        0.7 SECONDS, CPU UTILIZATION IS  86.36%

     -------------------------------------------
     COUPLED-PERTURBED CLOSED SHELL HARTREE-FOCK
     -------------------------------------------
 THE CPHF HAS     378 INDEPENDENT ORBITAL ROTATIONS.
 SOLVING FOR   15 NUCLEAR RESPONSES AND 0 ELECTRIC FIELD RESPONSES
           -FA- WILL USE     15945 WORDS,
           -TA- WILL USE     34677 WORDS,
          -FCK- WILL USE     71620 WORDS,
 -WXY- AND -YA- WILL USE     87052 WORDS,
               THERE ARE   1000000 WORDS OF REPLICATED MEMORY AVAILABLE.
        TIME FOR -FA-   =        0.000
        TIME FOR -TA-   =        0.000
        TIME FOR -FCK-  =        0.010
 PRECONDITIONED CONJUGATE GRADIENT SOLVER     CONV. TOLERANCE=5.00E-05
 ITER    RESPONSE ERROR        IMPROVED
   1       3.33874E-01            15
   2       1.76687E-01            15
   3       4.06258E-02            15
   4       7.21656E-03            15
   5       2.15499E-03            15
   6       4.38893E-04            15
   7       1.09581E-04            15
   8       3.42822E-05            12
 THE CPHF HAS CONVERGED AFTER  8 ITERATIONS.
 IT REQUIRED   117 FOCK-LIKE BUILDS TO FIND THE  15 SYMMETRY UNIQUE RESPONSES.
        TIME FOR -YA-   =        0.070
 ...... DONE WITH CPHF CONTRIBUTIONS ......
 CPU     0: STEP CPU TIME=     0.09 TOTAL CPU TIME=        0.7 (    0.0 MIN)
 TOTAL WALL CLOCK TIME=        0.8 SECONDS, CPU UTILIZATION IS  81.48%

          ---------------
          ENERGY GRADIENT
          ---------------

 UNITS ARE HARTREE/BOHR    E'X               E'Y               E'Z 
    1 C               -0.000011468       0.000013542      -0.000012955
    2 CL               0.000008191      -0.000006983       0.000003805
    3 CL               0.000004378      -0.000009244       0.000004660
    4 H               -0.000000420       0.000001128       0.000001854
    5 H               -0.000000681       0.000001557       0.000002636

          -------------------------------
          CARTESIAN FORCE CONSTANT MATRIX
          -------------------------------

                                   1                          2
                               C                          CL        
                          X        Y        Z        X        Y        Z
  1   C            X 0.325475-0.088992 0.030716-0.133581 0.004077-0.001407
                   Y-0.088992 0.428834 0.091317 0.019583-0.032548-0.002902
                   Z 0.030716 0.091317 0.661968-0.006758-0.002903-0.039957
  2   CL           X-0.133581 0.019583-0.006758 0.213817 0.000759-0.000261
                   Y 0.004077-0.032548-0.002903 0.000759 0.029469-0.001654
                   Z-0.001407-0.002902-0.039957-0.000261-0.001654 0.025247
  3   CL           X-0.036179-0.031059 0.010718-0.022030-0.025494 0.008797
                   Y-0.015553-0.119584 0.027132-0.014169-0.005044 0.002825
                   Z 0.005367 0.027133-0.050322 0.004889 0.002825 0.002167
  4   H            X-0.077858 0.021659-0.100150-0.029102 0.003261-0.024046
                   Y 0.021840-0.060157 0.042437-0.000637 0.003114 0.000342
                   Z-0.099625 0.041632-0.364043 0.008162-0.001029 0.007220
  5   H            X-0.077856 0.078809 0.065474-0.029104 0.017397 0.016917
                   Y 0.078628-0.216544-0.157983-0.005535 0.005009 0.001389
                   Z 0.064950-0.157179-0.207646-0.006032 0.002761 0.005324

                                   3                          4
                               CL                         H         
                          X        Y        Z        X        Y        Z
  3   CL           X 0.053935 0.058433-0.020164 0.002137-0.001136-0.000243
                   Y 0.058433 0.172338-0.050956-0.011576-0.020112 0.001402
                   Z-0.020164-0.050956 0.042260 0.013007 0.029148-0.000794
  4   H            X 0.002137-0.011576 0.013007 0.096649-0.011504 0.099653
                   Y-0.001136-0.020112 0.029148-0.011504 0.067984-0.047686
                   Z-0.000243 0.001402-0.000794 0.099653-0.047686 0.372137
  5   H            X 0.002137-0.017135-0.003099 0.008174-0.008563-0.007946
                   Y-0.000745-0.027597-0.008149-0.001840 0.009172 0.005681
                   Z 0.000892 0.019597 0.006689 0.011535-0.024242-0.014520

                                   5
                               H         
                          X        Y        Z
  5   H            X 0.096649-0.070508-0.071346
                   Y-0.070508 0.229960 0.159062
                   Z-0.071346 0.159062 0.210152

          ------------------------          ----------------
          DIPOLE DERIVATIVE TENSOR          (DEBYE/ANGSTROM)
          ------------------------          ----------------

        ATOM                 MU-X           MU-Y           MU-Z
     C          D/DX     5.639466259    2.029504844   -0.700340174
                D/DY     2.029498807    3.685667660   -0.913559325
                D/DZ    -0.700519402   -0.913682511    1.353767789
     CL         D/DX    -3.170469186   -0.760169753    0.262320977
                D/DY    -0.271962758   -1.105653897    0.089595352
                D/DZ     0.093829352    0.089589967   -0.876946322
     CL         D/DX    -1.758767430   -0.781152679    0.269561495
                D/DY    -1.269423025   -2.367111468    0.524916246
                D/DZ     0.438059274    0.524927710   -1.027149192
     H          D/DX    -0.355124370   -0.281789143   -0.025013131
                D/DY    -0.269249098   -0.020178955    0.287536608
                D/DZ     0.011328919    0.231771041    0.188908420
     H          D/DX    -0.355107960   -0.206368813    0.193462393
                D/DY    -0.218879508   -0.192733419    0.011504010
                D/DZ     0.157221566    0.067254349    0.361462401

          --------------------------------------------------------
          NORMAL COORDINATE ANALYSIS IN THE HARMONIC APPROXIMATION
          --------------------------------------------------------

          ATOMIC WEIGHTS (AMU)

    1     C                12.00000
    2     CL               34.96885
    3     CL               34.96885
    4     H                 1.00782
    5     H                 1.00782

 MODES 1 TO 6 ARE TAKEN AS ROTATIONS AND TRANSLATIONS.

 ANALYZING SYMMETRY OF NORMAL MODES...

     FREQUENCIES IN CM**-1, IR INTENSITIES IN DEBYE**2/AMU-ANGSTROM**2,
     REDUCED MASSES IN AMU.

                          1           2           3           4           5
       FREQUENCY:         0.23        0.15        0.02        0.57        1.82  
        SYMMETRY:         A           A           A           A           A   
    REDUCED MASS:     16.87833    18.00601    16.79351    24.42803    17.26308
    IR INTENSITY:      0.00011     0.00022     0.00005     0.00000     0.03463

  1   C            X  0.00879565  0.08603349 -0.06192585 -0.00029930 -0.05736732
                   Y  0.03884810  0.04985354  0.08406190  0.01654073 -0.03961575
                   Z  0.09692316 -0.03110766 -0.03152829  0.03592773  0.01562009
  2   CL           X  0.00875759  0.08591653 -0.06196329 -0.00030381 -0.05890106
                   Y  0.02689568  0.06110910  0.08667536  0.05302949  0.08902989
                   Z  0.05180461 -0.03065198 -0.03418184  0.14049826 -0.03268906
  3   CL           X  0.01197550  0.09579341 -0.05882080  0.00005490  0.07042597
                   Y  0.05033721  0.04591188  0.08478681 -0.01985855 -0.08890608
                   Z  0.13406024 -0.03072830 -0.02567329 -0.06912283  0.02731293
  4   H            X -0.01467658  0.08526351 -0.06358552  0.05318713 -0.09552658
                   Y  0.02814793  0.04746226  0.08053215  0.05161644 -0.05926446
                   Z  0.10295747 -0.03124846 -0.03156206  0.02395276  0.02505610
  5   H            X  0.03045977  0.08125674 -0.06203094 -0.05398486 -0.09184126
                   Y  0.04981608  0.04803757  0.08567079 -0.01858496 -0.06561762
                   Z  0.09547968 -0.03144685 -0.03333542  0.04817839  0.02724813

 TRANS. SAYVETZ    X  0.84646679  7.55441268 -5.09339050 -0.01309949 -0.47422886
                   Y  3.24549691  4.43689025  7.17208130  1.39172828 -0.59691881
                   Z  7.86254774 -2.58287569 -2.53680974  2.99974514  0.05215769
               TOTAL  8.54806488  9.13380494  9.15515049  3.30689433  0.76415018

   ROT. SAYVETZ    X -4.81699763  0.24948832 -0.47901888 12.77421384  0.18581978
                   Y  7.01012373  0.19994413  0.75103186-17.49947007  8.12541173
                   Z -1.76066335  1.95164462  0.38353639  6.11217286 23.65372831
               TOTAL  8.68592173  1.97765993  0.96984953 22.51156700 25.01111169

                          6           7           8           9          10
       FREQUENCY:         4.55      289.67      698.53      752.60      970.30  
        SYMMETRY:         A           A           A           A           A   
    REDUCED MASS:      2.58669    19.49829     7.48831     9.10937     1.32728
    IR INTENSITY:      0.37172     0.03165     0.54984     3.79797     0.03889

  1   C            X  0.00089769 -0.05312369 -0.13090117  0.20315064  0.00000174
                   Y  0.06833960  0.07291517  0.17967259  0.13225698 -0.04605131
                   Z  0.19266924 -0.02515824 -0.06200430 -0.04563996 -0.13343709
  2   CL           X  0.00092500 -0.08028810  0.06323674 -0.05697936 -0.00000046
                   Y -0.01574497 -0.07380614 -0.01046643  0.00067284  0.00582424
                   Z -0.04382168  0.02546886  0.00361228 -0.00023239  0.01687765
  3   CL           X -0.00128318  0.10157121 -0.01220192 -0.01964941  0.00000021
                   Y -0.01306831  0.04459461 -0.05958283 -0.05056032  0.00582509
                   Z -0.04587431 -0.01538929  0.02056162  0.01744792  0.01687749
  4   H            X -0.12287691 -0.05295162 -0.10608193  0.11997180 -0.31968532
                   Y  0.28719958  0.07235221  0.13507005  0.07810677  0.51083251
                   Z  0.27020385 -0.02602110 -0.08076728 -0.02695137  0.05740115
  5   H            X  0.12590941 -0.05294759 -0.10607355  0.11996751  0.31967307
                   Y -0.05531630  0.07300092  0.15612610  0.07809779 -0.36671282
                   Z  0.38839403 -0.02412574 -0.01971583 -0.02694915  0.36019986

 TRANS. SAYVETZ    X  0.00130341  0.00003361 -0.00000082  0.00000432  0.00000000
                   Y  0.04620549 -0.00002101  0.00000369  0.00000279 -0.00000465
                   Z -0.16078315  0.00003287  0.00001249  0.00000546  0.00000197
               TOTAL  0.16729575  0.00005149  0.00001305  0.00000750  0.00000505

   ROT. SAYVETZ    X  6.38118135  0.00012257  0.00006620  0.00004810 -0.00007235
                   Y  3.89113626  0.00008922  0.00005051 -0.00013999 -0.00003597
                   Z -1.79390228 -0.00005246 -0.00000511 -0.00026646  0.00000972
               TOTAL  7.68625411  0.00016042  0.00008342  0.00030482  0.00008138

                         11          12          13          14          15
       FREQUENCY:      1285.31     1422.52     1599.78     3363.96     3470.03  
        SYMMETRY:         A           A           A           A           A   
    REDUCED MASS:      1.01756     1.09906     1.07434     1.05284     1.11862
    IR INTENSITY:      0.00000     1.53583     0.00221     0.09193     0.01425

  1   C            X -0.00000878 -0.06692893  0.04206312 -0.03537342 -0.00001067
                   Y -0.00000558 -0.04357460 -0.05773119  0.04855976 -0.03094992
                   Z  0.00000178  0.01503641  0.01992370 -0.01672746 -0.08973572
  2   CL           X -0.00000086 -0.01078122  0.00455599  0.00031186  0.00000012
                   Y -0.00387060  0.00576294 -0.00085254 -0.00013505  0.00005883
                   Z -0.01121865 -0.00198756  0.00029399  0.00004656  0.00017058
  3   CL           X  0.00000041  0.00185163 -0.00078184  0.00002227 -0.00000002
                   Y  0.00387030 -0.01157673 -0.00432776 -0.00032357  0.00005875
                   Z  0.01121879  0.00399383  0.00149317  0.00011158  0.00017058
  4   H            X  0.57728219  0.55330707 -0.31588508  0.20473865  0.20469614
                   Y  0.37584155  0.36023795  0.56093201 -0.09012528 -0.09859210
                   Z -0.12969834 -0.12431112  0.21950317  0.65011829  0.62539520
  5   H            X -0.57716211  0.55343496 -0.31590470  0.20485337 -0.20457257
                   Y -0.37576438  0.36031927  0.30620463 -0.47215428  0.46302724
                   Z  0.12966874 -0.12434074 -0.51874334 -0.45643342  0.43123545

 TRANS. SAYVETZ    X  0.00000000 -0.00000232  0.00000164 -0.00000002  0.00000000
                   Y  0.00000033 -0.00000124 -0.00000155  0.00000016 -0.00000067
                   Z -0.00000350 -0.00000370 -0.00000267  0.00000100  0.00000042
               TOTAL  0.00000351  0.00000454  0.00000350  0.00000102  0.00000079

   ROT. SAYVETZ    X -0.00001200 -0.00003416 -0.00002611  0.00000720 -0.00000231
                   Y -0.00000429  0.00004248 -0.00002621  0.00000034 -0.00000439
                   Z  0.00000602 -0.00000861  0.00000555 -0.00000226  0.00000097
               TOTAL  0.00001409  0.00005519  0.00003741  0.00000755  0.00000505

 REFERENCE ON SAYVETZ CONDITIONS - A. SAYVETZ, J.CHEM.PHYS., 7, 383-389(1939).

 NOTE - THE MODES J,K ARE ORTHONORMALIZED ACCORDING TO
 SUM ON I   M(I) * (X(I,J)*X(I,K) + Y(I,J)*Y(I,K) + Z(I,J)*Z(I,K)) = DELTA(J,K)

  MODE FREQ(CM**-1)  SYMMETRY  RED. MASS  IR INTENS.
     1       0.231    A       16.878326    0.000109
     2       0.152    A       18.006009    0.000216
     3       0.022    A       16.793514    0.000045
     4       0.573    A       24.428028    0.000001
     5       1.824    A       17.263077    0.034631
     6       4.549    A        2.586693    0.371719
     7     289.669    A       19.498293    0.031652
     8     698.530    A        7.488311    0.549841
     9     752.603    A        9.109366    3.797970
    10     970.296    A        1.327280    0.038892
    11    1285.315    A        1.017559    0.000000
    12    1422.515    A        1.099064    1.535828
    13    1599.781    A        1.074340    0.002212
    14    3363.959    A        1.052843    0.091925
    15    3470.030    A        1.118620    0.014250

     -------------------------------
     THERMOCHEMISTRY AT T=  298.15 K
     -------------------------------

 USING IDEAL GAS, RIGID ROTOR, HARMONIC NORMAL MODE APPROXIMATIONS.
 P=  1.01325E+05 PASCAL.
 ALL FREQUENCIES ARE SCALED BY   1.00000
 THE MOMENTS OF INERTIA ARE (IN AMU*BOHR**2)
     58.92276   582.66744   630.11164
 THE ROTATIONAL SYMMETRY NUMBER IS  1.0
 THE ROTATIONAL CONSTANTS ARE (IN GHZ)
     30.60088     3.09454     2.86154
 THE HARMONIC ZERO POINT ENERGY IS (SCALED BY   1.000)
        0.031559 HARTREE/MOLECULE     6926.349007 CM**-1/MOLECULE 
       19.803445 KCAL/MOL               82.857616 KJ/MOL

               Q               LN Q
 ELEC.     1.00000E+00       0.000000
 TRANS.    3.02351E+07      17.224513
 ROT.      5.26504E+04      10.871430
 VIB.      1.43112E+00       0.358458
 TOT.      2.27819E+12      28.454401

              E         H         G         CV        CP        S
           KJ/MOL    KJ/MOL    KJ/MOL   J/MOL-K   J/MOL-K   J/MOL-K
 ELEC.      0.000     0.000     0.000     0.000     0.000     0.000
 TRANS.     3.718     6.197   -42.699    12.472    20.786   163.998
 ROT.       3.718     3.718   -26.950    12.472    12.472   102.861
 VIB.      84.703    84.703    81.969    16.627    16.627     9.170
 TOTAL     92.140    94.619    12.321    41.570    49.884   276.029
 VIB. THERMAL CORRECTION E(T)-E(0) = H(T)-H(0) =  1845.451 J/MOL

              E         H         G         CV        CP        S
         KCAL/MOL  KCAL/MOL  KCAL/MOL CAL/MOL-K CAL/MOL-K CAL/MOL-K
 ELEC.      0.000     0.000     0.000     0.000     0.000     0.000
 TRANS.     0.889     1.481   -10.205     2.981     4.968    39.196
 ROT.       0.889     0.889    -6.441     2.981     2.981    24.584
 VIB.      20.245    20.245    19.591     3.974     3.974     2.192
 TOTAL     22.022    22.614     2.945     9.935    11.923    65.972
 VIB. THERMAL CORRECTION E(T)-E(0) = H(T)-H(0) =   441.073 CAL/MOL
 ......END OF NORMAL COORDINATE ANALYSIS......
 CPU     0: STEP CPU TIME=     0.00 TOTAL CPU TIME=        0.7 (    0.0 MIN)
 TOTAL WALL CLOCK TIME=        0.8 SECONDS, CPU UTILIZATION IS  80.49%
                580000  WORDS OF DYNAMIC MEMORY USED
 EXECUTION OF GAMESS TERMINATED NORMALLY Sat Nov 14 12:03:32 2015
 DDI: 263624 bytes (0.3 MB / 0 MWords) used by master data server.

 ----------------------------------------
 CPU timing information for all processes
 ========================================
 0: 0.620 + 0.40 = 0.660
 1: 0.640 + 0.28 = 0.668
 2: 0.532 + 0.28 = 0.560
 3: 0.564 + 0.24 = 0.588
 4: 0.596 + 0.20 = 0.616
 5: 0.604 + 0.12 = 0.616
 6: 0.628 + 0.24 = 0.652
 7: 0.604 + 0.24 = 0.628
 ----------------------------------------
 ddikick.x: exited gracefully.
unset echo
----- accounting info -----
Files used on the master node GET-04 were:
-rw-r--r-- 1 carlos carlos   35477 Nov 14 12:03 /home/carlos/scr/gamess/dichloromethane.dat
-rw-r--r-- 1 carlos carlos     468 Nov 14 12:03 /home/carlos/scr/gamess/dichloromethane.F05
-rw-r--r-- 1 carlos carlos  720064 Nov 14 12:03 /home/carlos/scr/gamess/dichloromethane.F08
-rw-r--r-- 1 carlos carlos  720064 Nov 14 12:03 /home/carlos/scr/gamess/dichloromethane.F08.001
-rw-r--r-- 1 carlos carlos  180016 Nov 14 12:03 /home/carlos/scr/gamess/dichloromethane.F08.002
-rw-r--r-- 1 carlos carlos  180016 Nov 14 12:03 /home/carlos/scr/gamess/dichloromethane.F08.003
-rw-r--r-- 1 carlos carlos  540048 Nov 14 12:03 /home/carlos/scr/gamess/dichloromethane.F08.004
-rw-r--r-- 1 carlos carlos  540048 Nov 14 12:03 /home/carlos/scr/gamess/dichloromethane.F08.005
-rw-r--r-- 1 carlos carlos  540048 Nov 14 12:03 /home/carlos/scr/gamess/dichloromethane.F08.006
-rw-r--r-- 1 carlos carlos  720064 Nov 14 12:03 /home/carlos/scr/gamess/dichloromethane.F08.007
-rw-r--r-- 1 carlos carlos 1865040 Nov 14 12:03 /home/carlos/scr/gamess/dichloromethane.F10
-rw-r--r-- 1 carlos carlos   93720 Nov 14 12:03 /home/carlos/scr/gamess/dichloromethane.F18
ls: No match.
ls: No match.
ls: No match.
Sat Nov 14 12:03:35 BRST 2015
0.1u 0.0s 0:03.92 3.3% 0+0k 0+24io 0pf+0w
rm: No match.
rm: No match.
rm: No match.
