----- GAMESS execution script 'rungms' -----
This job is running on host GET-04
under operating system Linux at Sat Nov 14 12:03:40 BRST 2015
Available scratch disk space (Kbyte units) at beginning of the job is
Filesystem           1K-blocks      Used Available Use% Mounted on
/dev/md1             836273872 167545484 626248160  22% /
GAMESS temporary binary files will be written to /home/carlos/scr/gamess
GAMESS supplementary output files will be written to /home/carlos/scr/gamess
Copying input file tetrachloromethane.inp to your run's scratch directory...
cp tetrachloromethane.inp /home/carlos/scr/gamess/tetrachloromethane.F05
unset echo
/usr/local/gamess_2013_May_R1/ddikick.x /usr/local/gamess_2013_May_R1/gamess.00.x tetrachloromethane -ddi 1 8 localhost:cpus=8 -scr /home/carlos/scr/gamess

 Distributed Data Interface kickoff program.
 Initiating 8 compute processes on 1 nodes to run the following command:
 /usr/local/gamess_2013_May_R1/gamess.00.x tetrachloromethane 

          ******************************************************
          *         GAMESS VERSION =  1 MAY 2013 (R1)          *
          *             FROM IOWA STATE UNIVERSITY             *
          * M.W.SCHMIDT, K.K.BALDRIDGE, J.A.BOATZ, S.T.ELBERT, *
          *   M.S.GORDON, J.H.JENSEN, S.KOSEKI, N.MATSUNAGA,   *
          *          K.A.NGUYEN, S.J.SU, T.L.WINDUS,           *
          *       TOGETHER WITH M.DUPUIS, J.A.MONTGOMERY       *
          *         J.COMPUT.CHEM.  14, 1347-1363(1993)        *
          **************** 64 BIT INTEL VERSION ****************

  SINCE 1993, STUDENTS AND POSTDOCS WORKING AT IOWA STATE UNIVERSITY
  AND ALSO IN THEIR VARIOUS JOBS AFTER LEAVING ISU HAVE MADE IMPORTANT
  CONTRIBUTIONS TO THE CODE:
     IVANA ADAMOVIC, CHRISTINE AIKENS, YURI ALEXEEV, POOJA ARORA,
     ANDREY ASADCHEV, ROB BELL, PRADIPTA BANDYOPADHYAY, JONATHAN BENTZ,
     BRETT BODE, GALINA CHABAN, WEI CHEN, CHEOL HO CHOI, PAUL DAY,
     ALBERT DEFUSCO, TIM DUDLEY, DMITRI FEDOROV, GRAHAM FLETCHER,
     MARK FREITAG, KURT GLAESEMANN, DAN KEMP, GRANT MERRILL,
     NORIYUKI MINEZAWA, JONATHAN MULLIN, TAKESHI NAGATA,
     SEAN NEDD, HEATHER NETZLOFF, BOSILJKA NJEGIC, RYAN OLSON, MIKE PAK,
     JIM SHOEMAKER, LYUDMILA SLIPCHENKO, SAROM SOK, JIE SONG,
     TETSUYA TAKETSUGU, SIMON WEBB, SOOHAENG YOO, FEDERICO ZAHARIEV

  ADDITIONAL CODE HAS BEEN PROVIDED BY COLLABORATORS IN OTHER GROUPS:
     IOWA STATE UNIVERSITY:
          JOE IVANIC, LAIMUTIS BYTAUTAS, KLAUS RUEDENBERG
     UNIVERSITY OF TOKYO: KIMIHIKO HIRAO, TAKAHITO NAKAJIMA,
          TAKAO TSUNEDA, MUNEAKI KAMIYA, SUSUMU YANAGISAWA,
          KIYOSHI YAGI, MAHITO CHIBA, SEIKEN TOKURA, NAOAKI KAWAKAMI
     UNIVERSITY OF AARHUS: FRANK JENSEN
     UNIVERSITY OF IOWA: VISVALDAS KAIRYS, HUI LI
     NATIONAL INST. OF STANDARDS AND TECHNOLOGY: WALT STEVENS, DAVID GARMER
     UNIVERSITY OF PISA: BENEDETTA MENNUCCI, JACOPO TOMASI
     UNIVERSITY OF MEMPHIS: HENRY KURTZ, PRAKASHAN KORAMBATH
     UNIVERSITY OF ALBERTA: TOBY ZENG, MARIUSZ KLOBUKOWSKI
     UNIVERSITY OF NEW ENGLAND: MARK SPACKMAN
     MIE UNIVERSITY: HIROAKI UMEDA
     MICHIGAN STATE UNIVERSITY:
          KAROL KOWALSKI, MARTA WLOCH, JEFFREY GOUR, JESSE LUTZ,
          WEI LI, PIOTR PIECUCH
     UNIVERSITY OF SILESIA: MONIKA MUSIAL, STANISLAW KUCHARSKI
     FACULTES UNIVERSITAIRES NOTRE-DAME DE LA PAIX:
          OLIVIER QUINET, BENOIT CHAMPAGNE
     UNIVERSITY OF CALIFORNIA - SANTA BARBARA: BERNARD KIRTMAN
     INSTITUTE FOR MOLECULAR SCIENCE:
          KAZUYA ISHIMURA, MICHIO KATOUDA, AND SHIGERU NAGASE
     UNIVERSITY OF NOTRE DAME: DAN CHIPMAN
     KYUSHU UNIVERSITY:
          HARUYUKI NAKANO,
          FENG LONG GU, JACEK KORCHOWIEC, MARCIN MAKOWSKI, AND YURIKO AOKI,
          HIROTOSHI MORI AND EISAKU MIYOSHI
     PENNSYLVANIA STATE UNIVERSITY:
          TZVETELIN IORDANOV, CHET SWALINA, JONATHAN SKONE,
          SHARON HAMMES-SCHIFFER
     WASEDA UNIVERSITY:
          MASATO KOBAYASHI, TOMOKO AKAMA, TSUGUKI TOUMA,
          TAKESHI YOSHIKAWA, YASUHIRO IKABATA, HIROMI NAKAI
     NANJING UNIVERSITY: SHUHUA LI
     UNIVERSITY OF NEBRASKA:
          PEIFENG SU, DEJUN SI, NANDUN THELLAMUREGE, YALI WANG, HUI LI
     UNIVERSITY OF ZURICH:
          ROBERTO PEVERATI, KIM BALDRIDGE
     N. COPERNICUS UNIVERSITY AND JACKSON STATE UNIVERSITY:
          MARIA BARYSZ


 PARALLEL VERSION RUNNING ON     8 PROCESSORS IN     1 NODES.

 EXECUTION OF GAMESS BEGUN Sat Nov 14 12:03:40 2015

            ECHO OF THE FIRST FEW INPUT CARDS -
 INPUT CARD> $BASIS GBASIS=N31 NGAUSS=6 $END                                                
 INPUT CARD> $CONTRL SCFTYP=RHF RUNTYP=HESSIAN $END                                         
 INPUT CARD> $FORCE METHOD=ANALYTIC VIBANL=.TRUE. $END                                      
 INPUT CARD> $DATA                                                                          
 INPUT CARD>Tetrachloromethane - Frequencies                                                
 INPUT CARD>C1                                                                              
 INPUT CARD>C           6.0  -3.8548275466   0.9773808704   0.0000013164                    
 INPUT CARD>CL         17.0  -2.0319030638   0.9560888381   0.0073471823                    
 INPUT CARD>CL         17.0  -4.4836969669  -0.6401791921   0.5581947038                    
 INPUT CARD>CL         17.0  -4.4518447310   1.3112338981  -1.6898716270                    
 INPUT CARD>CL         17.0  -4.4518476917   2.2823755856   1.1243284243                    
 INPUT CARD> $END                                                                           
    1000000 WORDS OF MEMORY AVAILABLE

     BASIS OPTIONS
     -------------
     GBASIS=N31          IGAUSS=       6      POLAR=NONE    
     NDFUNC=       0     NFFUNC=       0     DIFFSP=       F
     NPFUNC=       0      DIFFS=       F     BASNAM=        


     RUN TITLE
     ---------
 Tetrachloromethane - Frequencies                                                

 THE POINT GROUP OF THE MOLECULE IS C1      
 THE ORDER OF THE PRINCIPAL AXIS IS     0

 ATOM      ATOMIC                      COORDINATES (BOHR)
           CHARGE         X                   Y                   Z
 C           6.0    -7.2845677930        1.8469820307        0.0000024876
 CL         17.0    -3.8397400242        1.8067459239        0.0138841613
 CL         17.0    -8.4729586794       -1.2097632561        1.0548350380
 CL         17.0    -8.4127666815        2.4778727732       -3.1933943295
 CL         17.0    -8.4127722764        4.3130644579        2.1246726421

          INTERNUCLEAR DISTANCES (ANGS.)
          ------------------------------

                1 C          2 CL         3 CL         4 CL         5 CL    

   1 C       0.0000000    1.8230636 *  1.8230626 *  1.8230628 *  1.8230622 *
   2 CL      1.8230636 *  0.0000000    2.9770452 *  2.9770451 *  2.9770481 *
   3 CL      1.8230626 *  2.9770452 *  0.0000000    2.9770505 *  2.9770536 *
   4 CL      1.8230628 *  2.9770451 *  2.9770505 *  0.0000000    2.9770519 *
   5 CL      1.8230622 *  2.9770481 *  2.9770536 *  2.9770519 *  0.0000000  

  * ... LESS THAN  3.000


     ATOMIC BASIS SET
     ----------------
 THE CONTRACTED PRIMITIVE FUNCTIONS HAVE BEEN UNNORMALIZED
 THE CONTRACTED BASIS FUNCTIONS ARE NOW NORMALIZED TO UNITY

  SHELL TYPE  PRIMITIVE        EXPONENT          CONTRACTION COEFFICIENT(S)

 C         

      1   S       1          3047.5248800    0.001834737132
      1   S       2           457.3695180    0.014037322813
      1   S       3           103.9486850    0.068842622264
      1   S       4            29.2101553    0.232184443216
      1   S       5             9.2866630    0.467941348435
      1   S       6             3.1639270    0.362311985337

      2   L       7             7.8682723   -0.119332419775    0.068999066591
      2   L       8             1.8812885   -0.160854151696    0.316423960957
      2   L       9             0.5442493    1.143456437840    0.744308290898

      3   L      10             0.1687145    1.000000000000    1.000000000000

 CL        

      4   S      11         25180.1000000    0.001832959848
      4   S      12          3780.3500000    0.014034198835
      4   S      13           860.4740000    0.069097394263
      4   S      14           242.1450000    0.237451980285
      4   S      15            77.3349000    0.483033959896
      4   S      16            26.2470000    0.339855971783

      5   L      17           491.7650000   -0.002297391417    0.003989400879
      5   L      18           116.9840000   -0.030713718938    0.030317706682
      5   L      19            37.4153000   -0.112528069386    0.129880028625
      5   L      20            13.7834000    0.045016327757    0.327951072278
      5   L      21             5.4521500    0.589353363399    0.453527099954
      5   L      22             2.2258800    0.465206286849    0.252154055573

      6   L      23             3.1864900   -0.251831288046   -0.014299314719
      6   L      24             1.1442700    0.061589315012    0.323572333073
      6   L      25             0.4203770    1.060185422549    0.743507765337

      7   L      26             0.1426570    1.000000000000    1.000000000000

 CL        

      8   S      27         25180.1000000    0.001832959848
      8   S      28          3780.3500000    0.014034198835
      8   S      29           860.4740000    0.069097394263
      8   S      30           242.1450000    0.237451980285
      8   S      31            77.3349000    0.483033959896
      8   S      32            26.2470000    0.339855971783

      9   L      33           491.7650000   -0.002297391417    0.003989400879
      9   L      34           116.9840000   -0.030713718938    0.030317706682
      9   L      35            37.4153000   -0.112528069386    0.129880028625
      9   L      36            13.7834000    0.045016327757    0.327951072278
      9   L      37             5.4521500    0.589353363399    0.453527099954
      9   L      38             2.2258800    0.465206286849    0.252154055573

     10   L      39             3.1864900   -0.251831288046   -0.014299314719
     10   L      40             1.1442700    0.061589315012    0.323572333073
     10   L      41             0.4203770    1.060185422549    0.743507765337

     11   L      42             0.1426570    1.000000000000    1.000000000000

 CL        

     12   S      43         25180.1000000    0.001832959848
     12   S      44          3780.3500000    0.014034198835
     12   S      45           860.4740000    0.069097394263
     12   S      46           242.1450000    0.237451980285
     12   S      47            77.3349000    0.483033959896
     12   S      48            26.2470000    0.339855971783

     13   L      49           491.7650000   -0.002297391417    0.003989400879
     13   L      50           116.9840000   -0.030713718938    0.030317706682
     13   L      51            37.4153000   -0.112528069386    0.129880028625
     13   L      52            13.7834000    0.045016327757    0.327951072278
     13   L      53             5.4521500    0.589353363399    0.453527099954
     13   L      54             2.2258800    0.465206286849    0.252154055573

     14   L      55             3.1864900   -0.251831288046   -0.014299314719
     14   L      56             1.1442700    0.061589315012    0.323572333073
     14   L      57             0.4203770    1.060185422549    0.743507765337

     15   L      58             0.1426570    1.000000000000    1.000000000000

 CL        

     16   S      59         25180.1000000    0.001832959848
     16   S      60          3780.3500000    0.014034198835
     16   S      61           860.4740000    0.069097394263
     16   S      62           242.1450000    0.237451980285
     16   S      63            77.3349000    0.483033959896
     16   S      64            26.2470000    0.339855971783

     17   L      65           491.7650000   -0.002297391417    0.003989400879
     17   L      66           116.9840000   -0.030713718938    0.030317706682
     17   L      67            37.4153000   -0.112528069386    0.129880028625
     17   L      68            13.7834000    0.045016327757    0.327951072278
     17   L      69             5.4521500    0.589353363399    0.453527099954
     17   L      70             2.2258800    0.465206286849    0.252154055573

     18   L      71             3.1864900   -0.251831288046   -0.014299314719
     18   L      72             1.1442700    0.061589315012    0.323572333073
     18   L      73             0.4203770    1.060185422549    0.743507765337

     19   L      74             0.1426570    1.000000000000    1.000000000000

 TOTAL NUMBER OF BASIS SET SHELLS             =   19
 NUMBER OF CARTESIAN GAUSSIAN BASIS FUNCTIONS =   61
 NUMBER OF ELECTRONS                          =   74
 CHARGE OF MOLECULE                           =    0
 SPIN MULTIPLICITY                            =    1
 NUMBER OF OCCUPIED ORBITALS (ALPHA)          =   37
 NUMBER OF OCCUPIED ORBITALS (BETA )          =   37
 TOTAL NUMBER OF ATOMS                        =    5
 THE NUCLEAR REPULSION ENERGY IS      426.6518936462

     $CONTRL OPTIONS
     ---------------
 SCFTYP=RHF          RUNTYP=HESSIAN      EXETYP=RUN     
 MPLEVL=       0     CITYP =NONE         CCTYP =NONE         VBTYP =NONE    
 DFTTYP=NONE         TDDFT =NONE    
 MULT  =       1     ICHARG=       0     NZVAR =       0     COORD =UNIQUE  
 PP    =NONE         RELWFN=NONE         LOCAL =NONE         NUMGRD=       F
 ISPHER=      -1     NOSYM =       0     MAXIT =      30     UNITS =ANGS    
 PLTORB=       F     MOLPLT=       F     AIMPAC=       F     FRIEND=        
 NPRINT=       7     IREST =       0     GEOM  =INPUT   
 NORMF =       0     NORMP =       0     ITOL  =      20     ICUT  =       9
 INTTYP=BEST         GRDTYP=BEST         QMTTOL= 1.0E-06

     $SYSTEM OPTIONS
     ---------------
  REPLICATED MEMORY=     1000000 WORDS (ON EVERY NODE).
 DISTRIBUTED MEMDDI=           0 MILLION WORDS IN AGGREGATE,
 MEMDDI DISTRIBUTED OVER   8 PROCESSORS IS           0 WORDS/PROCESSOR.
 TOTAL MEMORY REQUESTED ON EACH PROCESSOR=     1000000 WORDS.
 TIMLIM=      525600.00 MINUTES, OR     365.0 DAYS.
 PARALL= T  BALTYP=  DLB     KDIAG=    0  COREFL= F
 MXSEQ2=     300 MXSEQ3=     150

          ----------------
          PROPERTIES INPUT
          ----------------

     MOMENTS            FIELD           POTENTIAL          DENSITY
 IEMOM =       1   IEFLD =       0   IEPOT =       0   IEDEN =       0
 WHERE =COMASS     WHERE =NUCLEI     WHERE =NUCLEI     WHERE =NUCLEI  
 OUTPUT=BOTH       OUTPUT=BOTH       OUTPUT=BOTH       OUTPUT=BOTH    
 IEMINT=       0   IEFINT=       0                     IEDINT=       0
                                                       MORB  =       0
          EXTRAPOLATION IN EFFECT
          SOSCF IN EFFECT
 ORBITAL PRINTING OPTION: NPREO=     1    61     2     1

     -------------------------------
     INTEGRAL TRANSFORMATION OPTIONS
     -------------------------------
     NWORD  =            0
     CUTOFF = 1.0E-09     MPTRAN =       0
     DIRTRF =       F     AOINTS =DUP     

          ----------------------
          INTEGRAL INPUT OPTIONS
          ----------------------
 NOPK  =       1 NORDER=       0 SCHWRZ=       F

     ------------------------------------------
     THE POINT GROUP IS C1 , NAXIS= 0, ORDER= 1
     ------------------------------------------

     DIMENSIONS OF THE SYMMETRY SUBSPACES ARE
 A   =   61

 ..... DONE SETTING UP THE RUN .....
 CPU     0: STEP CPU TIME=     0.01 TOTAL CPU TIME=        0.0 (    0.0 MIN)
 TOTAL WALL CLOCK TIME=        0.0 SECONDS, CPU UTILIZATION IS  50.00%

     ---------------------------------
     HESSIAN MATRIX CONTROL PARAMETERS
     ---------------------------------
     METHOD=ANALYTIC   NVIB  =       2   VIBSIZ= 0.01000
     RDHESS=       F   PURIFY=       F   PRTIFC=       F
     VIBANL=       T   DECOMP=       F   PROJCT=       F
     SCLFAC= 1.00000   PRTSCN=       F   NPRT  =       0
     PULCOR=       F   NPUN  =       0   REDOVB=       T
     THERMOCHEMISTRY WILL BE PRINTED FOR    1 TEMPERATURES:
      298.15000

     ------------------------------
     CPHF RESPONSE SOLUTION OPTIONS
     ------------------------------
     POLAR  =       F     NWORD  =       0
     CPHF   =AO      

          ********************
          1 ELECTRON INTEGRALS
          ********************
 ...... END OF ONE-ELECTRON INTEGRALS ......
 CPU     0: STEP CPU TIME=     0.00 TOTAL CPU TIME=        0.0 (    0.0 MIN)
 TOTAL WALL CLOCK TIME=        0.0 SECONDS, CPU UTILIZATION IS  50.00%

          -------------
          GUESS OPTIONS
          -------------
          GUESS =HUCKEL            NORB  =       0          NORDER=       0
          MIX   =       F          PRTMO =       F          PUNMO =       F
          TOLZ  = 1.0E-08          TOLE  = 1.0E-05
          SYMDEN=       F          PURIFY=       F

 INITIAL GUESS ORBITALS GENERATED BY HUCKEL   ROUTINE.
 HUCKEL GUESS REQUIRES     38017 WORDS.

 SYMMETRIES FOR INITIAL GUESS ORBITALS FOLLOW.   BOTH SET(S).
    37 ORBITALS ARE OCCUPIED (   21 CORE ORBITALS).
    22=A       23=A       24=A       25=A       26=A       27=A       28=A   
    29=A       30=A       31=A       32=A       33=A       34=A       35=A   
    36=A       37=A       38=A       39=A       40=A       41=A       42=A   
    43=A       44=A       45=A       46=A       47=A   
 ...... END OF INITIAL ORBITAL SELECTION ......
 CPU     0: STEP CPU TIME=     0.02 TOTAL CPU TIME=        0.0 (    0.0 MIN)
 TOTAL WALL CLOCK TIME=        0.0 SECONDS, CPU UTILIZATION IS  75.00%

                    ----------------------
                    AO INTEGRAL TECHNOLOGY
                    ----------------------
     S,P,L SHELL ROTATED AXIS INTEGRALS, REPROGRAMMED BY
        KAZUYA ISHIMURA (IMS) AND JOSE SIERRA (SYNSTAR).
     S,P,D,L SHELL ROTATED AXIS INTEGRALS PROGRAMMED BY
        KAZUYA ISHIMURA (INSTITUTE FOR MOLECULAR SCIENCE).
     S,P,D,F,G SHELL TO TOTAL QUARTET ANGULAR MOMENTUM SUM 5,
        ERIC PROGRAM BY GRAHAM FLETCHER (ELORET AND NASA ADVANCED
        SUPERCOMPUTING DIVISION, AMES RESEARCH CENTER).
     S,P,D,F,G,L SHELL GENERAL RYS QUADRATURE PROGRAMMED BY
        MICHEL DUPUIS (PACIFIC NORTHWEST NATIONAL LABORATORY).

          --------------------
          2 ELECTRON INTEGRALS
          --------------------

 THE -PK- OPTION IS OFF, THE INTEGRALS ARE NOT IN SUPERMATRIX FORM.
 STORING   15000 INTEGRALS/RECORD ON DISK, USING 12 BYTES/INTEGRAL.
 TWO ELECTRON INTEGRAL EVALUATION REQUIRES   89546 WORDS OF MEMORY.
 II,JST,KST,LST =  1  1  1  1 NREC =         1 INTLOC =    1
 II,JST,KST,LST =  2  1  1  1 NREC =         1 INTLOC =    1
 II,JST,KST,LST =  3  1  1  1 NREC =         1 INTLOC =   32
 II,JST,KST,LST =  4  1  1  1 NREC =         1 INTLOC =   32
 II,JST,KST,LST =  5  1  1  1 NREC =         1 INTLOC =   32
 II,JST,KST,LST =  6  1  1  1 NREC =         1 INTLOC =   32
 II,JST,KST,LST =  7  1  1  1 NREC =         1 INTLOC = 1352
 II,JST,KST,LST =  8  1  1  1 NREC =         1 INTLOC = 1854
 II,JST,KST,LST =  9  1  1  1 NREC =         1 INTLOC = 4403
 II,JST,KST,LST = 10  1  1  1 NREC =         1 INTLOC = 6389
 II,JST,KST,LST = 11  1  1  1 NREC =         1 INTLOC = 6389
 II,JST,KST,LST = 12  1  1  1 NREC =         2 INTLOC =13046
 II,JST,KST,LST = 13  1  1  1 NREC =         2 INTLOC =13046
 II,JST,KST,LST = 14  1  1  1 NREC =         4 INTLOC = 2355
 II,JST,KST,LST = 15  1  1  1 NREC =         5 INTLOC = 6509
 II,JST,KST,LST = 16  1  1  1 NREC =         5 INTLOC = 6509
 II,JST,KST,LST = 17  1  1  1 NREC =         5 INTLOC = 9621
 II,JST,KST,LST = 18  1  1  1 NREC =         6 INTLOC = 6971
 II,JST,KST,LST = 19  1  1  1 NREC =         9 INTLOC = 5147
 TOTAL NUMBER OF NONZERO TWO-ELECTRON INTEGRALS =             1319939
         91 INTEGRAL RECORDS WERE STORED ON DISK FILE  8.
  ...... END OF TWO-ELECTRON INTEGRALS .....
 CPU     0: STEP CPU TIME=     0.04 TOTAL CPU TIME=        0.1 (    0.0 MIN)
 TOTAL WALL CLOCK TIME=        0.1 SECONDS, CPU UTILIZATION IS  77.78%

          --------------------------
                 RHF SCF CALCULATION
          --------------------------

     NUCLEAR ENERGY =       426.6518936462
     MAXIT =   30     NPUNCH=    2
     EXTRAP=T  DAMP=F  SHIFT=F  RSTRCT=F  DIIS=F  DEM=F  SOSCF=T
     DENSITY MATRIX CONV=  1.00E-05
     SOSCF WILL OPTIMIZE     888 ORBITAL ROTATIONS, SOGTOL=   0.250
     MEMORY REQUIRED FOR RHF ITERS=     60453 WORDS.

 ITER EX DEM     TOTAL ENERGY        E CHANGE  DENSITY CHANGE     ORB. GRAD
   1  0  0    -1874.9687720610 -1874.9687720610   0.658285026   0.000000000
          ---------------START SECOND ORDER SCF---------------
   2  1  0    -1875.5650118474    -0.5962397864   0.194911742   0.073685880
   3  2  0    -1875.5916243426    -0.0266124952   0.069462268   0.063694463
   4  3  0    -1875.6256775674    -0.0340532248   0.011460645   0.006834255
   5  4  0    -1875.6260582837    -0.0003807163   0.003946781   0.000943059
   6  5  0    -1875.6260817914    -0.0000235077   0.000394271   0.000143922
   7  6  0    -1875.6260822367    -0.0000004453   0.000073712   0.000030786
   8  7  0    -1875.6260822562    -0.0000000195   0.000032944   0.000003581
   9  8  0    -1875.6260822566    -0.0000000004   0.000006408   0.000000510
  10  9  0    -1875.6260822566     0.0000000000   0.000000848   0.000000179

          -----------------
          DENSITY CONVERGED
          -----------------
     TIME TO FORM FOCK OPERATORS=       0.1 SECONDS (       0.0 SEC/ITER)
     TIME TO SOLVE SCF EQUATIONS=       0.0 SECONDS (       0.0 SEC/ITER)

 FINAL RHF ENERGY IS    -1875.6260822566 AFTER  10 ITERATIONS

          ------------
          EIGENVECTORS
          ------------

                      1          2          3          4          5
                 -104.8775  -104.8775  -104.8775  -104.8775   -11.5238
                     A          A          A          A          A   
    1  C  1  S    0.000000   0.000000   0.000001  -0.000046   0.996551
    2  C  1  S   -0.000002   0.000001   0.000003  -0.000287   0.024572
    3  C  1  X   -0.000003   0.000002   0.000028   0.000000   0.000000
    4  C  1  Y    0.000023   0.000016   0.000001   0.000000   0.000000
    5  C  1  Z    0.000016  -0.000023   0.000004   0.000000   0.000000
    6  C  1  S    0.000002  -0.000001  -0.000004   0.000387  -0.015549
    7  C  1  X    0.000042  -0.000034  -0.000390  -0.000005   0.000000
    8  C  1  Y   -0.000325  -0.000221  -0.000016   0.000001   0.000000
    9  C  1  Z   -0.000218   0.000324  -0.000051   0.000002   0.000000
   10  CL 2  S   -0.094999   0.064028   0.849180   0.508775  -0.000032
   11  CL 2  S   -0.001199   0.000808   0.010719   0.006441   0.000077
   12  CL 2  X    0.000010  -0.000007  -0.000093  -0.000049   0.000053
   13  CL 2  Y   -0.000011  -0.000008   0.000000   0.000001  -0.000001
   14  CL 2  Z   -0.000008   0.000011  -0.000002   0.000000   0.000000
   15  CL 2  S    0.000401  -0.000270  -0.003570  -0.001814  -0.000060
   16  CL 2  X   -0.000022   0.000016   0.000199   0.000060  -0.000416
   17  CL 2  Y    0.000067   0.000046   0.000002  -0.000001   0.000005
   18  CL 2  Z    0.000045  -0.000067   0.000011   0.000000  -0.000002
   19  CL 2  S   -0.000278   0.000186   0.002448   0.000722   0.002338
   20  CL 2  X    0.000081  -0.000057  -0.000714   0.000058  -0.001502
   21  CL 2  Y   -0.000164  -0.000111  -0.000002   0.000000   0.000018
   22  CL 2  Z   -0.000109   0.000163  -0.000028   0.000001  -0.000006
   23  CL 3  S   -0.451540  -0.674865  -0.296635   0.495741  -0.000032
   24  CL 3  S   -0.005700  -0.008519  -0.003745   0.006277   0.000077
   25  CL 3  X   -0.000013  -0.000023  -0.000023   0.000016  -0.000018
   26  CL 3  Y   -0.000049  -0.000063  -0.000025   0.000042  -0.000047
   27  CL 3  Z    0.000005   0.000031   0.000007  -0.000014   0.000016
   28  CL 3  S    0.001898   0.002833   0.001242  -0.001759  -0.000060
   29  CL 3  X    0.000013   0.000039   0.000095  -0.000019   0.000143
   30  CL 3  Y    0.000123   0.000129   0.000040  -0.000051   0.000369
   31  CL 3  Z    0.000026  -0.000096  -0.000002   0.000017  -0.000127
   32  CL 3  S   -0.001302  -0.001937  -0.000844   0.000685   0.002338
   33  CL 3  X   -0.000074  -0.000157  -0.000257  -0.000026   0.000518
   34  CL 3  Y   -0.000408  -0.000473  -0.000163  -0.000060   0.001333
   35  CL 3  Z   -0.000025   0.000288   0.000028   0.000022  -0.000460
   36  CL 4  S   -0.279057   0.721124  -0.383855   0.497841  -0.000032
   37  CL 4  S   -0.003522   0.009103  -0.004846   0.006303   0.000077
   38  CL 4  X   -0.000007   0.000021  -0.000025   0.000015  -0.000017
   39  CL 4  Y   -0.000007  -0.000020   0.000006  -0.000009   0.000010
   40  CL 4  Z   -0.000032   0.000073  -0.000035   0.000044  -0.000049
   41  CL 4  S    0.001174  -0.003029   0.001608  -0.001768  -0.000060
   42  CL 4  X    0.000004  -0.000026   0.000098  -0.000018   0.000136
   43  CL 4  Y    0.000060   0.000064  -0.000007   0.000010  -0.000076
   44  CL 4  Z    0.000081  -0.000160   0.000060  -0.000053   0.000385
   45  CL 4  S   -0.000806   0.002074  -0.001094   0.000691   0.002338
   46  CL 4  X   -0.000035   0.000126  -0.000271  -0.000024   0.000492
   47  CL 4  Y   -0.000132  -0.000191   0.000034   0.000013  -0.000275
   48  CL 4  Z   -0.000268   0.000568  -0.000237  -0.000061   0.001392
   49  CL 5  S    0.838026  -0.116239  -0.191389   0.490565  -0.000032
   50  CL 5  S    0.010578  -0.001467  -0.002416   0.006211   0.000077
   51  CL 5  X    0.000027  -0.000005  -0.000019   0.000015  -0.000017
   52  CL 5  Y   -0.000067   0.000000   0.000012  -0.000033   0.000038
   53  CL 5  Z   -0.000056   0.000018   0.000009  -0.000029   0.000033
   54  CL 5  S   -0.003517   0.000487   0.000800  -0.001738  -0.000060
   55  CL 5  X   -0.000047   0.000012   0.000089  -0.000017   0.000136
   56  CL 5  Y    0.000151   0.000034  -0.000016   0.000040  -0.000298
   57  CL 5  Z    0.000117  -0.000077  -0.000006   0.000034  -0.000256
   58  CL 5  S    0.002403  -0.000332  -0.000541   0.000670   0.002338
   59  CL 5  X    0.000186  -0.000040  -0.000233  -0.000026   0.000492
   60  CL 5  Y   -0.000525  -0.000062   0.000072   0.000052  -0.001075
   61  CL 5  Z   -0.000421   0.000206   0.000043   0.000045  -0.000926

                      6          7          8          9         10
                  -10.6176   -10.6176   -10.6176   -10.6176    -8.0861
                     A          A          A          A          A   
    1  C  1  S   -0.000001   0.000000   0.000001  -0.000182  -0.000185
    2  C  1  S    0.000004  -0.000002  -0.000006   0.000860  -0.001465
    3  C  1  X    0.000004  -0.000003  -0.000035   0.000000  -0.000009
    4  C  1  Y   -0.000029  -0.000020  -0.000001   0.000000   0.000002
    5  C  1  Z   -0.000020   0.000029  -0.000005   0.000000   0.000004
    6  C  1  S   -0.000004   0.000002   0.000008  -0.001025   0.002601
    7  C  1  X   -0.000106   0.000083   0.000995   0.000008   0.000003
    8  C  1  Y    0.000832   0.000560   0.000041  -0.000002  -0.000001
    9  C  1  Z    0.000552  -0.000829   0.000128  -0.000003  -0.000001
   10  CL 2  S    0.027384  -0.017876  -0.245058  -0.145409  -0.001452
   11  CL 2  S   -0.098453   0.064270   0.881046   0.522637   0.005385
   12  CL 2  X    0.000936  -0.000611  -0.008375  -0.004987   0.478207
   13  CL 2  Y    0.000019   0.000027   0.000100   0.000058  -0.005587
   14  CL 2  Z    0.000023  -0.000032  -0.000029  -0.000020   0.001924
   15  CL 2  S   -0.002234   0.001458   0.019966   0.010963  -0.000550
   16  CL 2  X    0.000169  -0.000114  -0.001525  -0.000757   0.011338
   17  CL 2  Y   -0.000180  -0.000119   0.000006   0.000009  -0.000132
   18  CL 2  Z   -0.000117   0.000177  -0.000033  -0.000002   0.000046
   19  CL 2  S    0.000826  -0.000538  -0.007329  -0.002284  -0.000842
   20  CL 2  X   -0.000253   0.000173   0.002263   0.000028  -0.002109
   21  CL 2  Y    0.000467   0.000311   0.000003  -0.000001   0.000021
   22  CL 2  Z    0.000307  -0.000462   0.000078  -0.000002  -0.000014
   23  CL 3  S    0.131280   0.193157   0.085371  -0.142949  -0.001519
   24  CL 3  S   -0.471986  -0.694446  -0.306930   0.513793   0.005628
   25  CL 3  X   -0.001558  -0.002284  -0.000975   0.001692  -0.172562
   26  CL 3  Y   -0.003968  -0.005862  -0.002598   0.004350  -0.443881
   27  CL 3  Z    0.001399   0.002000   0.000902  -0.001501   0.153173
   28  CL 3  S   -0.010696  -0.015730  -0.006947   0.010762  -0.000607
   29  CL 3  X   -0.000220  -0.000375  -0.000370   0.000254  -0.004090
   30  CL 3  Y   -0.000802  -0.001037  -0.000414   0.000659  -0.010517
   31  CL 3  Z    0.000097   0.000494   0.000113  -0.000227   0.003630
   32  CL 3  S    0.003926   0.005760   0.002532  -0.002210  -0.000777
   33  CL 3  X    0.000257   0.000508   0.000757   0.000002   0.000795
   34  CL 3  Y    0.001276   0.001500   0.000542  -0.000007   0.002008
   35  CL 3  Z    0.000028  -0.000873  -0.000108   0.000000  -0.000699
   36  CL 4  S    0.079670  -0.208453   0.109148  -0.143366  -0.001507
   37  CL 4  S   -0.286435   0.749439  -0.392412   0.515291   0.005583
   38  CL 4  X   -0.000899   0.002346  -0.001191   0.001611  -0.162481
   39  CL 4  Y    0.000530  -0.001290   0.000687  -0.000901   0.090862
   40  CL 4  Z   -0.002515   0.006602  -0.003468   0.004558  -0.459932
   41  CL 4  S   -0.006492   0.016979  -0.008883   0.010796  -0.000596
   42  CL 4  X   -0.000117   0.000348  -0.000404   0.000242  -0.003852
   43  CL 4  Y   -0.000100  -0.000324   0.000098  -0.000136   0.002154
   44  CL 4  Z   -0.000513   0.001212  -0.000569   0.000690  -0.010899
   45  CL 4  S    0.002386  -0.006225   0.003242  -0.002223  -0.000789
   46  CL 4  X    0.000123  -0.000428   0.000801   0.000001   0.000747
   47  CL 4  Y    0.000363   0.000578  -0.000114   0.000001  -0.000414
   48  CL 4  Z    0.000824  -0.001805   0.000767  -0.000010   0.002071
   49  CL 5  S   -0.240682   0.034322   0.054814  -0.141974  -0.001549
   50  CL 5  S    0.865311  -0.123396  -0.197068   0.510284   0.005735
   51  CL 5  X    0.002701  -0.000383  -0.000581   0.001595  -0.166993
   52  CL 5  Y   -0.005883   0.000863   0.001348  -0.003486   0.365034
   53  CL 5  Z   -0.005075   0.000697   0.001165  -0.003003   0.314496
   54  CL 5  S    0.019599  -0.002794  -0.004458   0.010683  -0.000632
   55  CL 5  X    0.000445  -0.000078  -0.000309   0.000240  -0.003957
   56  CL 5  Y   -0.001100   0.000012   0.000201  -0.000527   0.008647
   57  CL 5  Z   -0.000913   0.000290   0.000154  -0.000454   0.007450
   58  CL 5  S   -0.007174   0.001020   0.001621  -0.002181  -0.000748
   59  CL 5  X   -0.000604   0.000124   0.000678   0.000005   0.000776
   60  CL 5  Y    0.001657   0.000144  -0.000244  -0.000001  -0.001672
   61  CL 5  Z    0.001335  -0.000608  -0.000159  -0.000002  -0.001442

                     11         12         13         14         15
                   -8.0860    -8.0860    -8.0860    -8.0812    -8.0812
                     A          A          A          A          A   
    1  C  1  S    0.000002   0.000001  -0.000004   0.000000   0.000000
    2  C  1  S    0.000017   0.000008  -0.000028   0.000000   0.000000
    3  C  1  X   -0.000043  -0.000036   0.000426   0.000000   0.000001
    4  C  1  Y    0.000358  -0.000238   0.000016   0.000001   0.000001
    5  C  1  Z    0.000235   0.000356   0.000054  -0.000001   0.000001
    6  C  1  S   -0.000030  -0.000015   0.000050   0.000000   0.000000
    7  C  1  X    0.000014   0.000012  -0.000138  -0.000001  -0.000010
    8  C  1  Y   -0.000116   0.000077  -0.000005  -0.000012  -0.000018
    9  C  1  Z   -0.000076  -0.000116  -0.000018   0.000007  -0.000013
   10  CL 2  S    0.000302   0.000205  -0.002639   0.000000   0.000000
   11  CL 2  S   -0.001092  -0.000742   0.009521   0.000000  -0.000001
   12  CL 2  X   -0.098701  -0.067079   0.861565  -0.001060  -0.004080
   13  CL 2  Y    0.000861   0.000978  -0.010080  -0.079797  -0.460137
   14  CL 2  Z   -0.000590  -0.000562   0.003429   0.031894  -0.319497
   15  CL 2  S    0.000249   0.000171  -0.002230  -0.000001  -0.000008
   16  CL 2  X   -0.002311  -0.001571   0.020168  -0.000022  -0.000084
   17  CL 2  Y    0.000071  -0.000011  -0.000233  -0.001649  -0.009509
   18  CL 2  Z    0.000020   0.000038   0.000088   0.000659  -0.006602
   19  CL 2  S   -0.000266  -0.000186   0.002504   0.000002   0.000022
   20  CL 2  X    0.000699   0.000488  -0.006255   0.000005   0.000012
   21  CL 2  Y   -0.000542   0.000351   0.000042   0.000459   0.002655
   22  CL 2  Z   -0.000348  -0.000530  -0.000104  -0.000182   0.001843
   23  CL 3  S    0.001429  -0.002031   0.000857   0.000000   0.000000
   24  CL 3  S   -0.005154   0.007322  -0.003086   0.000001   0.000001
   25  CL 3  X    0.161006  -0.228714   0.096125  -0.081499  -0.347873
   26  CL 3  Y    0.413753  -0.588173   0.248134   0.211303   0.155654
   27  CL 3  Z   -0.143072   0.202745  -0.085676   0.520478   0.059112
   28  CL 3  S    0.001207  -0.001730   0.000741   0.000011   0.000013
   29  CL 3  X    0.003752  -0.005342   0.002302  -0.001683  -0.007177
   30  CL 3  Y    0.009707  -0.013758   0.005789   0.004362   0.003212
   31  CL 3  Z   -0.003306   0.004781  -0.001990   0.010744   0.001222
   32  CL 3  S   -0.001354   0.001973  -0.000870  -0.000029  -0.000033
   33  CL 3  X   -0.000984   0.001553  -0.001274   0.000459   0.001948
   34  CL 3  Y   -0.003233   0.004210  -0.001664  -0.001213  -0.000894
   35  CL 3  Z    0.000580  -0.001862   0.000485  -0.002948  -0.000338
   36  CL 4  S    0.000862   0.002225   0.001116   0.000000   0.000000
   37  CL 4  S   -0.003110  -0.008023  -0.004022  -0.000001   0.000001
   38  CL 4  X    0.092217   0.237935   0.118980   0.036498  -0.233155
   39  CL 4  Y   -0.051841  -0.132843  -0.066742  -0.517667   0.205196
   40  CL 4  Z    0.260733   0.673110   0.337719  -0.115171   0.122919
   41  CL 4  S    0.000725   0.001887   0.000962  -0.000007   0.000010
   42  CL 4  X    0.002146   0.005547   0.002836   0.000754  -0.004811
   43  CL 4  Y   -0.001159  -0.003134  -0.001554  -0.010689   0.004237
   44  CL 4  Z    0.006119   0.015758   0.007885  -0.002378   0.002537
   45  CL 4  S   -0.000806  -0.002135  -0.001121   0.000019  -0.000027
   46  CL 4  X   -0.000535  -0.001500  -0.001424  -0.000206   0.001309
   47  CL 4  Y   -0.000199   0.001225   0.000416   0.002945  -0.001170
   48  CL 4  Z   -0.002047  -0.004932  -0.002309   0.000665  -0.000709
   49  CL 5  S   -0.002524  -0.000365   0.000550   0.000000   0.000000
   50  CL 5  S    0.009102   0.001317  -0.001980   0.000000  -0.000001
   51  CL 5  X   -0.269910  -0.039031   0.058435   0.047836   0.606264
   52  CL 5  Y    0.589764   0.085575  -0.128505   0.410909   0.135528
   53  CL 5  Z    0.508176   0.073269  -0.110748  -0.451532   0.164641
   54  CL 5  S   -0.002153  -0.000314   0.000481  -0.000003  -0.000014
   55  CL 5  X   -0.006304  -0.000916   0.001423   0.000987   0.012502
   56  CL 5  Y    0.013811   0.001962  -0.002994   0.008478   0.002795
   57  CL 5  Z    0.011890   0.001760  -0.002574  -0.009316   0.003395
   58  CL 5  S    0.002462   0.000365  -0.000574   0.000009   0.000038
   59  CL 5  X    0.001834   0.000312  -0.001028  -0.000267  -0.003374
   60  CL 5  Y   -0.004402  -0.000207   0.000830  -0.002314  -0.000771
   61  CL 5  Z   -0.003683  -0.001017   0.000655   0.002536  -0.000930

                     16         17         18         19         20
                   -8.0812    -8.0812    -8.0812    -8.0812    -8.0812
                     A          A          A          A          A   
    1  C  1  S    0.000000   0.000000   0.000000   0.000000   0.000000
    2  C  1  S    0.000000   0.000000   0.000000   0.000000   0.000000
    3  C  1  X    0.000000   0.000001  -0.000001   0.000065  -0.000005
    4  C  1  Y    0.000001   0.000003   0.000002   0.000002  -0.000036
    5  C  1  Z   -0.000002  -0.000004   0.000001   0.000007   0.000054
    6  C  1  S    0.000000   0.000000   0.000000   0.000000   0.000000
    7  C  1  X    0.000004  -0.000009   0.000016  -0.000782   0.000059
    8  C  1  Y   -0.000012  -0.000030  -0.000028  -0.000028   0.000433
    9  C  1  Z    0.000018   0.000050  -0.000015  -0.000090  -0.000653
   10  CL 2  S    0.000000   0.000000   0.000000  -0.000019   0.000001
   11  CL 2  S    0.000000  -0.000001   0.000001  -0.000049   0.000003
   12  CL 2  X   -0.005650  -0.004298  -0.004114   0.000550  -0.006515
   13  CL 2  Y   -0.320275  -0.227998  -0.437619   0.027288  -0.365027
   14  CL 2  Z    0.473026   0.407203  -0.250250   0.068106   0.550473
   15  CL 2  S    0.000003  -0.000007   0.000014  -0.000648   0.000043
   16  CL 2  X   -0.000117  -0.000088  -0.000084   0.000002  -0.000132
   17  CL 2  Y   -0.006616  -0.004646  -0.008920   0.000555  -0.007412
   18  CL 2  Z    0.009772   0.008298  -0.005101   0.001384   0.011177
   19  CL 2  S   -0.000009   0.000019  -0.000037   0.001731  -0.000114
   20  CL 2  X    0.000037   0.000009   0.000038  -0.000919   0.000088
   21  CL 2  Y    0.001838   0.001013   0.001958  -0.000110   0.001547
   22  CL 2  Z   -0.002714  -0.001811   0.001121  -0.000300  -0.002333
   23  CL 3  S    0.000000   0.000001   0.000000   0.000006  -0.000015
   24  CL 3  S    0.000001   0.000003   0.000001   0.000017  -0.000038
   25  CL 3  X   -0.472333   0.333132   0.270811   0.538024   0.127665
   26  CL 3  Y    0.101354  -0.236481   0.034122  -0.161348   0.068348
   27  CL 3  Z   -0.238461  -0.310071   0.403949   0.138019   0.343165
   28  CL 3  S    0.000012   0.000037   0.000012   0.000221  -0.000501
   29  CL 3  X   -0.009743   0.006780   0.005510   0.010916   0.002590
   30  CL 3  Y    0.002090  -0.004815   0.000696  -0.003277   0.001394
   31  CL 3  Z   -0.004920  -0.006315   0.008224   0.002801   0.006960
   32  CL 3  S   -0.000032  -0.000100  -0.000033  -0.000591   0.001338
   33  CL 3  X    0.002642  -0.001465  -0.001170  -0.002364  -0.000274
   34  CL 3  Y   -0.000581   0.000989  -0.000173   0.000400   0.000337
   35  CL 3  Z    0.001348   0.001388  -0.001763  -0.000479  -0.001651
   36  CL 4  S    0.000000  -0.000001   0.000000   0.000008   0.000016
   37  CL 4  S   -0.000001  -0.000003   0.000000   0.000021   0.000042
   38  CL 4  X    0.540704  -0.406961   0.130351   0.532141  -0.229680
   39  CL 4  Y    0.175382   0.159170   0.506349   0.074896  -0.232450
   40  CL 4  Z   -0.156390   0.175187   0.053986  -0.172970   0.035683
   41  CL 4  S   -0.000017  -0.000040   0.000003   0.000277   0.000551
   42  CL 4  X    0.011156  -0.008283   0.002652   0.010799  -0.004659
   43  CL 4  Y    0.003619   0.003243   0.010312   0.001520  -0.004715
   44  CL 4  Z   -0.003226   0.003567   0.001100  -0.003514   0.000716
   45  CL 4  S    0.000045   0.000107  -0.000007  -0.000739  -0.001471
   46  CL 4  X   -0.003034   0.001786  -0.000561  -0.002368   0.000689
   47  CL 4  Y   -0.000996  -0.000720  -0.002232  -0.000241   0.001118
   48  CL 4  Z    0.000901  -0.000712  -0.000247   0.000366  -0.000865
   49  CL 5  S    0.000000   0.000000  -0.000001   0.000004  -0.000003
   50  CL 5  S    0.000000   0.000001  -0.000002   0.000011  -0.000007
   51  CL 5  X   -0.070938   0.097351  -0.430935   0.540479  -0.013076
   52  CL 5  Y    0.067359   0.367301  -0.044323   0.116779  -0.363249
   53  CL 5  Z   -0.115853  -0.374642  -0.177347   0.151263   0.414792
   54  CL 5  S    0.000001   0.000010  -0.000029   0.000150  -0.000092
   55  CL 5  X   -0.001463   0.001981  -0.008765   0.010962  -0.000265
   56  CL 5  Y    0.001390   0.007475  -0.000901   0.002370  -0.007367
   57  CL 5  Z   -0.002390  -0.007625  -0.003608   0.003069   0.008410
   58  CL 5  S   -0.000004  -0.000027   0.000077  -0.000400   0.000247
   59  CL 5  X    0.000394  -0.000425   0.001861  -0.002317   0.000099
   60  CL 5  Y   -0.000379  -0.001588   0.000158  -0.000334   0.001411
   61  CL 5  Z    0.000652   0.001641   0.000738  -0.000498  -0.001798

                     21         22         23         24         25
                   -8.0812    -1.2896    -1.1406    -1.1406    -1.1406
                     A          A          A          A          A   
    1  C  1  S    0.000000  -0.135091   0.000000   0.000000   0.000000
    2  C  1  S    0.000000   0.234923   0.000000   0.000000   0.000000
    3  C  1  X   -0.000006   0.000000  -0.017192   0.009024   0.144688
    4  C  1  Y    0.000055   0.000000   0.126824   0.071517   0.010608
    5  C  1  Z    0.000036   0.000000   0.070226  -0.126947   0.016262
    6  C  1  S    0.000000   0.350951   0.000000   0.000000   0.000000
    7  C  1  X    0.000072   0.000001  -0.007422   0.003896   0.062465
    8  C  1  Y   -0.000656   0.000000   0.054753   0.030875   0.004580
    9  C  1  Z   -0.000429   0.000000   0.030318  -0.054806   0.007021
   10  CL 2  S    0.000002   0.030488  -0.008720   0.003641   0.068584
   11  CL 2  S    0.000005  -0.137383   0.039746  -0.016593  -0.312590
   12  CL 2  X    0.004807   0.033677  -0.003696   0.001447   0.028576
   13  CL 2  Y    0.537530  -0.000393  -0.006537  -0.003739  -0.000973
   14  CL 2  Z    0.352509   0.000136  -0.003668   0.006605  -0.000700
   15  CL 2  S    0.000065   0.276812  -0.079423   0.033157   0.624641
   16  CL 2  X    0.000098  -0.076026   0.008846  -0.003457  -0.068360
   17  CL 2  Y    0.010913   0.000888   0.016038   0.009171   0.002366
   18  CL 2  Z    0.007157  -0.000306   0.008997  -0.016201   0.001723
   19  CL 2  S   -0.000173   0.057821  -0.032530   0.013580   0.255837
   20  CL 2  X    0.000071   0.015698   0.001474  -0.000682  -0.011936
   21  CL 2  Y   -0.002277  -0.000183  -0.004572  -0.002568  -0.000303
   22  CL 2  Z   -0.001492   0.000063  -0.002523   0.004565  -0.000612
   23  CL 3  S    0.000010   0.030488  -0.040356  -0.050003  -0.025772
   24  CL 3  S    0.000027  -0.137384   0.183932   0.227900   0.117464
   25  CL 3  X   -0.170042  -0.011618   0.008220   0.008609  -0.002840
   26  CL 3  Y    0.207560  -0.029883   0.012255   0.019634   0.011484
   27  CL 3  Z    0.409010   0.010312  -0.010153  -0.001461  -0.004998
   28  CL 3  S    0.000353   0.276813  -0.367547  -0.455408  -0.234726
   29  CL 3  X   -0.003449   0.026228  -0.019812  -0.020682   0.007192
   30  CL 3  Y    0.004205   0.067462  -0.029156  -0.047040  -0.027592
   31  CL 3  Z    0.008297  -0.023280   0.024592   0.003196   0.012061
   32  CL 3  S   -0.000942   0.057821  -0.150538  -0.186523  -0.096138
   33  CL 3  X    0.000527  -0.005415  -0.000748  -0.002018  -0.006077
   34  CL 3  Y   -0.001302  -0.013929  -0.008077  -0.006927  -0.002626
   35  CL 3  Z   -0.001548   0.004807  -0.001313   0.006069   0.000190
   36  CL 4  S    0.000006   0.030488  -0.017186   0.060614  -0.028698
   37  CL 4  S    0.000016  -0.137384   0.078332  -0.276266   0.130799
   38  CL 4  X   -0.121508  -0.011029   0.003856  -0.010916  -0.002572
   39  CL 4  Y    0.521448   0.006168  -0.008247   0.002126  -0.003317
   40  CL 4  Z    0.146122  -0.031219   0.004735  -0.022975   0.013156
   41  CL 4  S    0.000210   0.276813  -0.156529   0.552057  -0.261374
   42  CL 4  X   -0.002465   0.024899  -0.009316   0.026276   0.006549
   43  CL 4  Y    0.010579  -0.013924   0.020151  -0.004934   0.008004
   44  CL 4  Z    0.002961   0.070477  -0.011213   0.054936  -0.031598
   45  CL 4  S   -0.000562   0.057821  -0.064110   0.226108  -0.107052
   46  CL 4  X    0.000404  -0.005141   0.000066   0.001624  -0.006127
   47  CL 4  Y   -0.002122   0.002875  -0.004253  -0.003662   0.000134
   48  CL 4  Z   -0.000883  -0.014552  -0.004090   0.010082  -0.003196
   49  CL 5  S   -0.000018   0.030488   0.066263  -0.014252  -0.014113
   50  CL 5  S   -0.000048  -0.137384  -0.302010   0.064959   0.064326
   51  CL 5  X    0.137852  -0.011029  -0.010528   0.001988  -0.005086
   52  CL 5  Y    0.084573   0.024108   0.018374  -0.009086  -0.005869
   53  CL 5  Z   -0.024171   0.020771   0.017859   0.001971  -0.005426
   54  CL 5  S   -0.000628   0.276813   0.603499  -0.129806  -0.128541
   55  CL 5  X    0.002795   0.024899   0.025275  -0.004757   0.012594
   56  CL 5  Y    0.001708  -0.054426  -0.043871   0.022030   0.014140
   57  CL 5  Z   -0.000496  -0.046891  -0.042775  -0.005057   0.013090
   58  CL 5  S    0.001677   0.057821   0.247177  -0.053165  -0.052647
   59  CL 5  X   -0.000265  -0.005141   0.002748  -0.000783  -0.005658
   60  CL 5  Y   -0.000980   0.011237  -0.009218  -0.001571   0.000610
   61  CL 5  Z   -0.000446   0.009682  -0.006537   0.005429   0.000269

                     26         27         28         29         30
                   -0.8460    -0.6557    -0.6557    -0.6557    -0.5362
                     A          A          A          A          A   
    1  C  1  S   -0.151669   0.000000   0.000000   0.000000   0.000000
    2  C  1  S    0.269549   0.000000   0.000000   0.000001   0.000000
    3  C  1  X    0.000000  -0.040055  -0.018339  -0.328474   0.000000
    4  C  1  Y    0.000000   0.287593  -0.162636  -0.025990   0.000000
    5  C  1  Z    0.000000   0.159755   0.288182  -0.035570   0.000000
    6  C  1  S    0.570894   0.000000   0.000000   0.000000   0.000000
    7  C  1  X    0.000000  -0.038706  -0.017721  -0.317403   0.000000
    8  C  1  Y    0.000000   0.277901  -0.157155  -0.025114   0.000000
    9  C  1  Z    0.000000   0.154371   0.278470  -0.034371   0.000000
   10  CL 2  S   -0.027485   0.002556   0.000913   0.019619   0.000000
   11  CL 2  S    0.127125  -0.012034  -0.004299  -0.092376   0.000000
   12  CL 2  X    0.070216  -0.019561  -0.005954  -0.144767  -0.001718
   13  CL 2  Y   -0.000820  -0.073387   0.041822   0.009338  -0.132778
   14  CL 2  Z    0.000283  -0.041079  -0.073929   0.008197   0.041408
   15  CL 2  S   -0.255335   0.023765   0.008489   0.182423   0.000000
   16  CL 2  X   -0.169400   0.048628   0.014719   0.359464   0.004460
   17  CL 2  Y    0.001979   0.188275  -0.107280  -0.023816   0.344742
   18  CL 2  Z   -0.000683   0.105374   0.189647  -0.021076  -0.107511
   19  CL 2  S   -0.208560   0.032770   0.011706   0.251546   0.000000
   20  CL 2  X   -0.004813   0.008123   0.002049   0.057910   0.002390
   21  CL 2  Y    0.000056   0.060647  -0.034476  -0.006986   0.184739
   22  CL 2  Z   -0.000019   0.033864   0.060990  -0.007012  -0.057613
   23  CL 3  S   -0.027485   0.011501  -0.014275  -0.007499   0.000000
   24  CL 3  S    0.127125  -0.054151   0.067214   0.035308   0.000000
   25  CL 3  X   -0.024223   0.056577  -0.052776   0.054024   0.130500
   26  CL 3  Y   -0.062306   0.045373  -0.106144  -0.070998  -0.043976
   27  CL 3  Z    0.021501  -0.082062  -0.022869   0.035920   0.019588
   28  CL 3  S   -0.255336   0.106936  -0.132732  -0.069725   0.000000
   29  CL 3  X    0.058440  -0.142727   0.132396  -0.140156  -0.338828
   30  CL 3  Y    0.150317  -0.110202   0.264602   0.178093   0.114178
   31  CL 3  Z   -0.051872   0.208374   0.061317  -0.090751  -0.050858
   32  CL 3  S   -0.208560   0.147457  -0.183028  -0.096145   0.000000
   33  CL 3  X    0.001660  -0.034238   0.028099  -0.052692  -0.181570
   34  CL 3  Y    0.004271  -0.005426   0.047848   0.037710   0.061185
   35  CL 3  Z   -0.001474   0.056665   0.032582  -0.022436  -0.027253
   36  CL 4  S   -0.027485   0.004918   0.017385  -0.008115   0.000000
   37  CL 4  S    0.127125  -0.023158  -0.081857   0.038207   0.000000
   38  CL 4  X   -0.022996   0.029070   0.071156   0.053199  -0.060956
   39  CL 4  Y    0.012860  -0.084249   0.004537   0.024009   0.116798
   40  CL 4  Z   -0.065092   0.012256   0.114213  -0.078676   0.044610
   41  CL 4  S   -0.255336   0.045732   0.161650  -0.075450   0.000000
   42  CL 4  X    0.055480  -0.073596  -0.179080  -0.138084   0.158266
   43  CL 4  Y   -0.031024   0.215575  -0.013570  -0.060687  -0.303252
   44  CL 4  Z    0.157037  -0.028673  -0.283209   0.197262  -0.115825
   45  CL 4  S   -0.208560   0.063061   0.222903  -0.104040   0.000000
   46  CL 4  X    0.001576  -0.018934  -0.040853  -0.052233   0.084811
   47  CL 4  Y   -0.000881   0.066691  -0.013731  -0.015149  -0.162506
   48  CL 4  Z    0.004462   0.004190  -0.043686   0.041322  -0.062068
   49  CL 5  S   -0.027485  -0.018975  -0.004023  -0.004006   0.000000
   50  CL 5  S    0.127125   0.089343   0.018942   0.018861   0.000000
   51  CL 5  X   -0.022996  -0.062262  -0.010676   0.068906  -0.067826
   52  CL 5  Y    0.050267   0.084807   0.075311   0.040133   0.059956
   53  CL 5  Z    0.043308   0.095634  -0.044927   0.037956  -0.105606
   54  CL 5  S   -0.255336  -0.176432  -0.037405  -0.037246   0.000000
   55  CL 5  X    0.055480   0.155948   0.026587  -0.177558   0.176103
   56  CL 5  Y   -0.121271  -0.209311  -0.191446  -0.101212  -0.155668
   57  CL 5  Z   -0.104482  -0.238227   0.116757  -0.095868   0.274193
   58  CL 5  S   -0.208560  -0.243287  -0.051579  -0.051359   0.000000
   59  CL 5  X    0.001576   0.031880   0.004676  -0.060972   0.094369
   60  CL 5  Y   -0.003446  -0.027366  -0.053108  -0.024120  -0.083419
   61  CL 5  Z   -0.002968  -0.042199   0.044854  -0.023569   0.146934

                     31         32         33         34         35
                   -0.5362    -0.4936    -0.4936    -0.4936    -0.4797
                     A          A          A          A          A   
    1  C  1  S    0.000000   0.000000   0.000000   0.000000   0.000000
    2  C  1  S    0.000000   0.000000   0.000000   0.000000   0.000000
    3  C  1  X    0.000000   0.020401   0.011403  -0.181399   0.000000
    4  C  1  Y    0.000000  -0.158120   0.091128  -0.012055   0.000002
    5  C  1  Z    0.000000  -0.089630  -0.158169  -0.020022  -0.000001
    6  C  1  S    0.000000   0.000001   0.000000  -0.000001   0.000000
    7  C  1  X    0.000000   0.008657   0.004839  -0.076980   0.000000
    8  C  1  Y    0.000000  -0.067100   0.038672  -0.005116   0.000001
    9  C  1  Z    0.000000  -0.038035  -0.067121  -0.008497   0.000000
   10  CL 2  S    0.000000  -0.000181  -0.000080   0.001498   0.000000
   11  CL 2  S    0.000000   0.000963   0.000427  -0.007975   0.000000
   12  CL 2  X    0.000051   0.015105   0.008561  -0.134930   0.000306
   13  CL 2  Y   -0.041411  -0.124983   0.072043  -0.009627   0.024494
   14  CL 2  Z   -0.132788  -0.070857  -0.125035  -0.015792  -0.004876
   15  CL 2  S    0.000000  -0.001261  -0.000559   0.010450   0.000000
   16  CL 2  X   -0.000133  -0.039289  -0.022287   0.351074  -0.000805
   17  CL 2  Y    0.107519   0.326416  -0.188154   0.025158  -0.064450
   18  CL 2  Z    0.344768   0.185058   0.326554   0.041240   0.012830
   19  CL 2  S    0.000000  -0.003640  -0.001613   0.030159   0.000000
   20  CL 2  X   -0.000071  -0.017433  -0.010539   0.159182  -0.000432
   21  CL 2  Y    0.057617   0.188281  -0.108592   0.015023  -0.034603
   22  CL 2  Z    0.184753   0.106800   0.188431   0.023621   0.006888
   23  CL 3  S    0.000000  -0.000874   0.001101  -0.000555   0.000000
   24  CL 3  S    0.000000   0.004654  -0.005859   0.002953   0.000000
   25  CL 3  X   -0.003915   0.017835   0.006864  -0.142318   0.023226
   26  CL 3  Y    0.046713  -0.120613   0.066518  -0.006747  -0.063961
   27  CL 3  Z    0.130958  -0.072370  -0.123131  -0.016789  -0.159188
   28  CL 3  S    0.000000  -0.006099   0.007678  -0.003869   0.000000
   29  CL 3  X    0.010164  -0.046847  -0.017592   0.371521  -0.061115
   30  CL 3  Y   -0.121286   0.314319  -0.172863   0.017188   0.168301
   31  CL 3  Z   -0.340017   0.189245   0.321282   0.043998   0.418869
   32  CL 3  S    0.000000  -0.017600   0.022158  -0.011167   0.000000
   33  CL 3  X    0.005447  -0.035765   0.000845   0.208826  -0.032812
   34  CL 3  Y   -0.064994   0.158895  -0.071457  -0.004338   0.090359
   35  CL 3  Z   -0.182207   0.116947   0.175619   0.030306   0.224885
   36  CL 4  S    0.000000  -0.000392  -0.001318  -0.000626   0.000000
   37  CL 4  S    0.000000   0.002087   0.007018   0.003332   0.000000
   38  CL 4  X    0.116436   0.016854   0.011459  -0.142240  -0.007185
   39  CL 4  Y    0.071112  -0.125405   0.070674  -0.010178   0.159043
   40  CL 4  Z   -0.027087  -0.068800  -0.118127  -0.012549   0.033958
   41  CL 4  S    0.000000  -0.002734  -0.009196  -0.004366   0.000000
   42  CL 4  X   -0.302311  -0.044131  -0.030308   0.371306   0.018905
   43  CL 4  Y   -0.184633   0.327582  -0.184365   0.026683  -0.418488
   44  CL 4  Z    0.070328   0.179364   0.307434   0.032261  -0.089354
   45  CL 4  S    0.000000  -0.007891  -0.026540  -0.012600   0.000000
   46  CL 4  X   -0.162002  -0.029182  -0.029991   0.208307   0.010150
   47  CL 4  Y   -0.098940   0.191093  -0.099386   0.018716  -0.224681
   48  CL 4  Z    0.037687   0.092969   0.141995   0.001811  -0.047973
   49  CL 5  S    0.000000   0.001447   0.000298  -0.000317   0.000000
   50  CL 5  S    0.000000  -0.007704  -0.001586   0.001690   0.000000
   51  CL 5  X   -0.112572   0.013444   0.008462  -0.142815  -0.016347
   52  CL 5  Y   -0.076414  -0.119142   0.073247  -0.010815  -0.119569
   53  CL 5  Z    0.028917  -0.065808  -0.124000  -0.016936   0.130103
   54  CL 5  S    0.000000   0.010094   0.002078  -0.002215   0.000000
   55  CL 5  X    0.292281  -0.034694  -0.022014   0.372896   0.043014
   56  CL 5  Y    0.198399   0.310249  -0.191485   0.028445   0.314621
   57  CL 5  Z   -0.075079   0.171082   0.323688   0.044404  -0.342339
   58  CL 5  S    0.000000   0.029131   0.005996  -0.006391   0.000000
   59  CL 5  X    0.156627  -0.006294  -0.009877   0.212149   0.023094
   60  CL 5  Y    0.106318   0.149012  -0.116662   0.022995   0.168916
   61  CL 5  Z   -0.040233   0.072867   0.181447   0.031292  -0.183797

                     36         37         38         39         40
                   -0.4797    -0.4797     0.0530     0.1266     0.1266
                     A          A          A          A          A   
    1  C  1  S    0.000000   0.000000  -0.178055  -0.000001   0.000000
    2  C  1  S    0.000000   0.000000   0.292120   0.000000   0.000000
    3  C  1  X    0.000002   0.000000  -0.000001   0.503785  -0.029476
    4  C  1  Y    0.000003   0.000002   0.000000   0.040959  -0.244049
    5  C  1  Z    0.000002  -0.000003   0.000000   0.055814   0.445156
    6  C  1  S    0.000000   0.000000   1.632508   0.000008  -0.000002
    7  C  1  X    0.000001   0.000000  -0.000003   1.209246  -0.070753
    8  C  1  Y    0.000001   0.000001   0.000001   0.098316  -0.585798
    9  C  1  Z    0.000001  -0.000001   0.000001   0.133971   1.068522
   10  CL 2  S    0.000000   0.000000  -0.009091  -0.018368   0.000906
   11  CL 2  S    0.000000   0.000000   0.046545   0.093404  -0.004606
   12  CL 2  X    0.001299   0.001814  -0.110241  -0.141506   0.006689
   13  CL 2  Y    0.147568   0.104116   0.001288   0.004585  -0.015375
   14  CL 2  Z    0.105585  -0.148487  -0.000444   0.002796   0.027897
   15  CL 2  S    0.000000   0.000000  -0.079056  -0.165722   0.008172
   16  CL 2  X   -0.003419  -0.004774   0.289841   0.375903  -0.017743
   17  CL 2  Y   -0.388293  -0.273960  -0.003386  -0.012429   0.042145
   18  CL 2  Z   -0.277824   0.390711   0.001168  -0.007714  -0.076480
   19  CL 2  S    0.000000   0.000000  -0.270203  -0.715071   0.035265
   20  CL 2  X   -0.001835  -0.002563   0.457987   0.904704  -0.042993
   21  CL 2  Y   -0.208470  -0.147086  -0.005350  -0.026988   0.086171
   22  CL 2  Z   -0.149160   0.209768   0.001845  -0.015208  -0.156259
   23  CL 3  S    0.000000   0.000000  -0.009091   0.007042  -0.013243
   24  CL 3  S    0.000000   0.000000   0.046545  -0.035810   0.067342
   25  CL 3  X    0.098611   0.137852   0.038031   0.008646   0.041193
   26  CL 3  Y   -0.045062  -0.030742   0.097823  -0.056304   0.095426
   27  CL 3  Z   -0.019492   0.066215  -0.033757   0.023808  -0.010339
   28  CL 3  S    0.000000   0.000000  -0.079057   0.063537  -0.119482
   29  CL 3  X   -0.259474  -0.362727  -0.099989  -0.025298  -0.109938
   30  CL 3  Y    0.118571   0.080890  -0.257191   0.150263  -0.253912
   31  CL 3  Z    0.051289  -0.174230   0.088752  -0.063857   0.025684
   32  CL 3  S    0.000000   0.000000  -0.270207   0.274151  -0.515550
   33  CL 3  X   -0.139308  -0.194744  -0.157996  -0.033583  -0.258610
   34  CL 3  Y    0.063660   0.043429  -0.406396   0.353500  -0.606218
   35  CL 3  Z    0.027536  -0.093542   0.140240  -0.146507   0.082671
   36  CL 4  S    0.000000   0.000000  -0.009091   0.007632   0.016331
   37  CL 4  S    0.000000   0.000000   0.046545  -0.038812  -0.083049
   38  CL 4  X    0.070661  -0.156884   0.036104   0.007984  -0.052233
   39  CL 4  Y   -0.065910  -0.049667  -0.020190   0.015732   0.012902
   40  CL 4  Z   -0.037984   0.045611   0.102196  -0.063161  -0.114762
   41  CL 4  S    0.000000   0.000000  -0.079056   0.068863   0.147349
   42  CL 4  X   -0.185928   0.412807  -0.094924  -0.023529   0.139693
   43  CL 4  Y    0.173429   0.130687   0.053082  -0.042214  -0.033409
   44  CL 4  Z    0.099946  -0.120016  -0.268688   0.168520   0.304698
   45  CL 4  S    0.000000   0.000000  -0.270206   0.297130   0.635795
   46  CL 4  X   -0.099823   0.221631  -0.149993  -0.029446   0.325203
   47  CL 4  Y    0.093111   0.070164   0.083877  -0.096645  -0.090527
   48  CL 4  Z    0.053660  -0.064435  -0.424564   0.396950   0.735205
   49  CL 5  S    0.000000   0.000000  -0.009091   0.003693  -0.003994
   50  CL 5  S    0.000000   0.000000   0.046546  -0.018781   0.020313
   51  CL 5  X   -0.170565   0.017217   0.036105   0.020138   0.010479
   52  CL 5  Y   -0.036586  -0.023701  -0.078920   0.027472  -0.042215
   53  CL 5  Z   -0.048103   0.036651  -0.067994   0.024953   0.004653
   54  CL 5  S    0.000000   0.000000  -0.079057   0.033323  -0.036040
   55  CL 5  X    0.448807  -0.045302  -0.094925  -0.056002  -0.027872
   56  CL 5  Y    0.096268   0.062364   0.207494  -0.073582   0.113859
   57  CL 5  Z    0.126572  -0.096440   0.178767  -0.066917  -0.014374
   58  CL 5  S    0.000000   0.000000  -0.270208   0.143781  -0.155508
   59  CL 5  X    0.240958  -0.024322  -0.149995  -0.105391  -0.066681
   60  CL 5  Y    0.051685   0.033482   0.327869  -0.170005   0.253891
   61  CL 5  Z    0.067955  -0.051777   0.282477  -0.153664  -0.011011

                     41         42         43         44         45
                    0.1266     0.4093     0.5081     0.5081     0.5081
                     A          A          A          A          A   
    1  C  1  S    0.000000  -0.027349   0.000000   0.000000   0.000000
    2  C  1  S    0.000000  -0.234868   0.000000   0.000000   0.000000
    3  C  1  X   -0.062642  -0.000003  -0.001353   0.001259   0.013524
    4  C  1  Y    0.444247   0.000001   0.010943   0.008155   0.000335
    5  C  1  Z    0.239402   0.000001   0.008050  -0.010874   0.001817
    6  C  1  S   -0.000004   1.632613  -0.000002   0.000001   0.000003
    7  C  1  X   -0.150362   0.000002   0.065353  -0.060853  -0.653549
    8  C  1  Y    1.066341  -0.000001  -0.528730  -0.394071  -0.016178
    9  C  1  Z    0.574646  -0.000001  -0.388952   0.525463  -0.087820
   10  CL 2  S    0.002439   0.037284   0.004225  -0.003269  -0.039481
   11  CL 2  S   -0.012403  -0.062418  -0.006889   0.005331   0.064372
   12  CL 2  X    0.019058   0.033835  -0.004371   0.005586   0.050030
   13  CL 2  Y    0.027537  -0.000395   0.113201   0.084542   0.004519
   14  CL 2  Z    0.015077   0.000136   0.083397  -0.112644   0.018458
   15  CL 2  S    0.022006   0.782771   0.089824  -0.069503  -0.839322
   16  CL 2  X   -0.050648  -0.116419   0.017332  -0.021784  -0.196864
   17  CL 2  Y   -0.075514   0.001360  -0.429987  -0.321114  -0.017085
   18  CL 2  Z   -0.041328  -0.000469  -0.316767   0.427860  -0.070139
   19  CL 2  S    0.094958  -1.019519  -0.124578   0.096394   1.164062
   20  CL 2  X   -0.121632   0.340623   0.012408  -0.000423  -0.077672
   21  CL 2  Y   -0.154049  -0.003979   0.470966   0.352275   0.022155
   22  CL 2  Z   -0.084499   0.001372   0.347352  -0.469099   0.075701
   23  CL 3  S    0.010917   0.037284   0.019780   0.032104   0.012859
   24  CL 3  S   -0.055516  -0.062417  -0.032251  -0.052344  -0.020967
   25  CL 3  X   -0.039401  -0.011672  -0.029568  -0.012215   0.129949
   26  CL 3  Y   -0.063456  -0.030023   0.073287   0.019489  -0.022556
   27  CL 3  Z    0.046477   0.010360   0.097171  -0.090196   0.027801
   28  CL 3  S    0.098499   0.782772   0.420507   0.682495   0.273380
   29  CL 3  X    0.105551   0.040161   0.111127   0.044480  -0.494361
   30  CL 3  Y    0.167615   0.103306  -0.281407  -0.078957   0.083701
   31  CL 3  Z   -0.125229  -0.035649  -0.368042   0.344299  -0.104917
   32  CL 3  S    0.425017  -1.019522  -0.583207  -0.946561  -0.379155
   33  CL 3  X    0.243673  -0.117507  -0.172535  -0.131080   0.508921
   34  CL 3  Y    0.414561  -0.302255   0.178000  -0.125201  -0.176568
   35  CL 3  Z   -0.280718   0.104302   0.448454  -0.304334   0.144275
   36  CL 4  S    0.004379   0.037284   0.014635  -0.032574   0.017665
   37  CL 4  S   -0.022270  -0.062417  -0.023862   0.053110  -0.028802
   38  CL 4  X   -0.017432  -0.011081  -0.024937   0.037370   0.126873
   39  CL 4  Y    0.035362   0.006197   0.119427   0.070851   0.010845
   40  CL 4  Z   -0.023261  -0.031365   0.052418  -0.043751  -0.018524
   41  CL 4  S    0.039511   0.782772   0.311129  -0.692485   0.375534
   42  CL 4  X    0.046852   0.038127   0.093889  -0.140099  -0.482909
   43  CL 4  Y   -0.096421  -0.021321  -0.453162  -0.270149  -0.040633
   44  CL 4  Z    0.061108   0.107924  -0.201451   0.171408   0.067525
   45  CL 4  S    0.170490  -1.019521  -0.431508   0.960415  -0.520832
   46  CL 4  X    0.106392  -0.111555  -0.138545   0.232868   0.486341
   47  CL 4  Y   -0.202943   0.062383   0.516660   0.251782   0.068588
   48  CL 4  Z    0.155070  -0.315766   0.119976   0.036565  -0.195740
   49  CL 5  S   -0.017736   0.037284  -0.038640   0.003739   0.008956
   50  CL 5  S    0.090189  -0.062417   0.063002  -0.006097  -0.014603
   51  CL 5  X    0.050800  -0.011081   0.014854   0.010249   0.133377
   52  CL 5  Y   -0.091805   0.024222   0.050230   0.090560   0.018089
   53  CL 5  Z   -0.088067   0.020868   0.029007  -0.107356   0.031419
   54  CL 5  S   -0.160018   0.782772  -0.821457   0.079491   0.190402
   55  CL 5  X   -0.135461   0.038128  -0.054230  -0.039142  -0.507122
   56  CL 5  Y    0.243362  -0.083344  -0.195579  -0.343518  -0.067600
   57  CL 5  Z    0.234267  -0.071805  -0.114305   0.408174  -0.118385
   58  CL 5  S   -0.690460  -1.019523   1.139291  -0.110247  -0.264071
   59  CL 5  X   -0.319986  -0.111557   0.153512   0.033803   0.534081
   60  CL 5  Y    0.591712   0.243850   0.008768   0.396447   0.121760
   61  CL 5  Z    0.560041   0.210090  -0.051855  -0.430280   0.170829

                     46         47         48         49         50
                    0.5900     0.5900     0.5900     0.6042     0.6118
                     A          A          A          A          A   
    1  C  1  S    0.000000   0.000000  -0.000001   0.021990   0.000000
    2  C  1  S   -0.000007   0.000004   0.000013  -0.494358   0.000000
    3  C  1  X    0.008431  -0.073410  -0.270661  -0.000012   0.000003
    4  C  1  Y   -0.184656  -0.205255   0.049919   0.000003   0.000000
    5  C  1  Z   -0.211070   0.176636  -0.054482   0.000004  -0.000006
    6  C  1  S    0.000023  -0.000015  -0.000046   1.678918   0.000000
    7  C  1  X   -0.018739   0.163180   0.601642   0.000027  -0.000006
    8  C  1  Y    0.410460   0.456250  -0.110963  -0.000007   0.000000
    9  C  1  Z    0.469175  -0.392634   0.121105  -0.000010   0.000013
   10  CL 2  S    0.000732  -0.005290  -0.020426  -0.009468   0.000000
   11  CL 2  S   -0.001596   0.011526   0.044508   0.019363   0.000000
   12  CL 2  X   -0.008178   0.055498   0.217952   0.148158   0.000005
   13  CL 2  Y   -0.052435  -0.059313   0.010762  -0.001731  -0.049015
   14  CL 2  Z   -0.060119   0.050582  -0.014319   0.000599  -0.143795
   15  CL 2  S    0.014453  -0.104383  -0.403074  -0.195436   0.000003
   16  CL 2  X    0.031074  -0.211080  -0.828724  -0.553495  -0.000021
   17  CL 2  Y    0.196183   0.221963  -0.040113   0.006466   0.189665
   18  CL 2  Z    0.224940  -0.189269   0.053521  -0.002236   0.556420
   19  CL 2  S   -0.003382   0.024427   0.094324   0.016033   0.000000
   20  CL 2  X   -0.042306   0.291890   1.141092   0.759505   0.000018
   21  CL 2  Y   -0.200694  -0.228091   0.037641  -0.008872  -0.188783
   22  CL 2  Z   -0.230295   0.194045  -0.053605   0.003067  -0.553835
   23  CL 3  S    0.007247   0.019680   0.002438  -0.009468   0.000000
   24  CL 3  S   -0.015791  -0.042882  -0.005312   0.019361   0.000000
   25  CL 3  X    0.038505   0.077151  -0.064894  -0.051110  -0.000538
   26  CL 3  Y    0.040308   0.193776   0.045450  -0.131459   0.049741
   27  CL 3  Z   -0.092128  -0.036751  -0.026288   0.045366   0.143540
   28  CL 3  S    0.143005   0.388352   0.048109  -0.195423  -0.000003
   29  CL 3  X   -0.145688  -0.293068   0.242259   0.190940   0.002080
   30  CL 3  Y   -0.154984  -0.736345  -0.171459   0.491108  -0.192474
   31  CL 3  Z    0.346141   0.141412   0.098842  -0.169479  -0.555435
   32  CL 3  S   -0.033466  -0.090881  -0.011259   0.016034   0.000000
   33  CL 3  X    0.184966   0.397309  -0.235926  -0.262005  -0.002071
   34  CL 3  Y    0.250819   1.004055   0.206519  -0.673897   0.191577
   35  CL 3  Z   -0.386126  -0.231133  -0.111878   0.232557   0.552855
   36  CL 4  S    0.011970  -0.013340   0.011158  -0.009468   0.000000
   37  CL 4  S   -0.026083   0.029068  -0.024314   0.019362   0.000000
   38  CL 4  X    0.059015  -0.083989  -0.024263  -0.048524   0.125381
   39  CL 4  Y   -0.084221  -0.023141  -0.015303   0.027134   0.080983
   40  CL 4  Z    0.100177  -0.128320   0.133881  -0.137336  -0.028294
   41  CL 4  S    0.236212  -0.263247   0.220196  -0.195425   0.000005
   42  CL 4  X   -0.223350   0.317085   0.088412   0.181277  -0.485168
   43  CL 4  Y    0.316541   0.084999   0.058583  -0.101370  -0.313368
   44  CL 4  Z   -0.382011   0.488137  -0.507630   0.513066   0.109485
   45  CL 4  S   -0.055277   0.061604  -0.051529   0.016034  -0.000001
   46  CL 4  X    0.284821  -0.387201  -0.038115  -0.248744   0.482916
   47  CL 4  Y   -0.355442  -0.051986  -0.089261   0.139097   0.311911
   48  CL 4  Z    0.550093  -0.676931   0.667897  -0.704029  -0.108973
   49  CL 5  S   -0.019950  -0.001050   0.006831  -0.009467   0.000000
   50  CL 5  S    0.043471   0.002287  -0.014884   0.019361   0.000000
   51  CL 5  X   -0.091960  -0.025860  -0.044733  -0.048522  -0.124849
   52  CL 5  Y    0.153699  -0.047574  -0.056413   0.106055  -0.081709
   53  CL 5  Z    0.117624   0.059630  -0.076353   0.091371   0.028548
   54  CL 5  S   -0.393683  -0.020713   0.134796  -0.195418  -0.000005
   55  CL 5  X    0.348309   0.096981   0.165922   0.181270   0.483108
   56  CL 5  Y   -0.584332   0.177514   0.214244  -0.396203   0.316177
   57  CL 5  Z   -0.448076  -0.223528   0.288413  -0.341348  -0.110468
   58  CL 5  S    0.092129   0.004847  -0.031544   0.016035   0.000001
   59  CL 5  X   -0.450194  -0.104200  -0.137774  -0.248734  -0.480866
   60  CL 5  Y    0.802853  -0.170937  -0.289400   0.543667  -0.314705
   61  CL 5  Z    0.635037   0.238088  -0.355617   0.468398   0.109957

                     51         52         53         54         55
                    0.6118     0.7116     0.7116     0.7116     0.8090
                     A          A          A          A          A   
    1  C  1  S    0.000000   0.000000   0.000000   0.000000   0.000000
    2  C  1  S    0.000004   0.000000   0.000000   0.000000   0.000000
    3  C  1  X    0.000001   0.000000   0.000001   0.000001  -0.053581
    4  C  1  Y   -0.000005   0.000001   0.000003   0.000000   0.349531
    5  C  1  Z    0.000004  -0.000001   0.000000   0.000002   0.161393
    6  C  1  S   -0.000013   0.000000   0.000000   0.000000  -0.000002
    7  C  1  X   -0.000001   0.000001  -0.000002  -0.000002   0.217036
    8  C  1  Y    0.000012  -0.000001  -0.000006  -0.000001  -1.415836
    9  C  1  Z   -0.000008   0.000003   0.000001  -0.000004  -0.653752
   10  CL 2  S    0.000000   0.000000   0.000000   0.000000   0.007957
   11  CL 2  S    0.000000   0.000000   0.000000   0.000000  -0.003536
   12  CL 2  X   -0.001878   0.000037   0.002098  -0.000695   0.014670
   13  CL 2  Y   -0.143784  -0.024261   0.177234  -0.004256  -0.078906
   14  CL 2  Z    0.049013  -0.079550  -0.007035   0.160140  -0.036410
   15  CL 2  S    0.000002   0.000000   0.000000   0.000000   0.202902
   16  CL 2  X    0.007268  -0.000154  -0.008659   0.002870  -0.063488
   17  CL 2  Y    0.556377   0.100121  -0.731411   0.017564   0.330102
   18  CL 2  Z   -0.189656   0.328287   0.029032  -0.660867   0.152301
   19  CL 2  S    0.000000  -0.000001   0.000000   0.000001  -0.385289
   20  CL 2  X   -0.007237   0.000208   0.011642  -0.003858   0.233125
   21  CL 2  Y   -0.553792  -0.134613   0.983385  -0.023615  -0.303222
   22  CL 2  Z    0.188775  -0.441382  -0.039035   0.888538  -0.138249
   23  CL 3  S    0.000000   0.000000   0.000000   0.000000   0.033812
   24  CL 3  S   -0.000001   0.000000   0.000000   0.000000  -0.015026
   25  CL 3  X    0.142595   0.002831   0.159421  -0.052813   0.008309
   26  CL 3  Y   -0.049347  -0.040678  -0.068208  -0.022488  -0.088602
   27  CL 3  Z    0.017636  -0.114688  -0.018047  -0.124668  -0.033064
   28  CL 3  S    0.000008   0.000000   0.000001   0.000000   0.862161
   29  CL 3  X   -0.551775  -0.011684  -0.657900   0.217948  -0.031652
   30  CL 3  Y    0.190949   0.167870   0.281482   0.092805   0.378629
   31  CL 3  Z   -0.068242   0.473293   0.074476   0.514479   0.135554
   32  CL 3  S   -0.000001  -0.000001  -0.000003   0.000000  -1.637145
   33  CL 3  X    0.549215   0.015709   0.884547  -0.293031  -0.227944
   34  CL 3  Y   -0.190055  -0.225701  -0.378454  -0.124776  -1.006030
   35  CL 3  Z    0.067923  -0.636343  -0.100132  -0.691716   0.104284
   36  CL 4  S    0.000000   0.000000   0.000000   0.000000   0.009499
   37  CL 4  S    0.000000   0.000000   0.000000   0.000000  -0.004221
   38  CL 4  X   -0.069887  -0.067692  -0.038749   0.150017   0.011082
   39  CL 4  Y    0.125483   0.155549  -0.036784   0.073489  -0.078312
   40  CL 4  Z    0.049479   0.054646   0.006423  -0.038482  -0.039275
   41  CL 4  S   -0.000004   0.000000   0.000000   0.000001   0.242196
   42  CL 4  X    0.270430   0.279350   0.159910  -0.619088  -0.045531
   43  CL 4  Y   -0.485563  -0.641921   0.151801  -0.303273   0.327128
   44  CL 4  Z   -0.191462  -0.225513  -0.026506   0.158807   0.166639
   45  CL 4  S    0.000001   0.000002   0.000001  -0.000002  -0.459903
   46  CL 4  X   -0.269175  -0.375586  -0.214999   0.832365  -0.026951
   47  CL 4  Y    0.483307   0.863062  -0.204096   0.407751  -0.260159
   48  CL 4  Z    0.190570   0.303203   0.035637  -0.213518  -0.345900
   49  CL 5  S    0.000000   0.000000   0.000000   0.000000  -0.051269
   50  CL 5  S    0.000000   0.000000   0.000000   0.000000   0.022783
   51  CL 5  X   -0.070829   0.064823  -0.122771  -0.096509   0.017535
   52  CL 5  Y    0.067646  -0.090610  -0.072243  -0.046744  -0.090774
   53  CL 5  Z   -0.116127   0.139592   0.018659   0.003009  -0.046671
   54  CL 5  S   -0.000001   0.000000  -0.000001   0.000000  -1.307262
   55  CL 5  X    0.274077  -0.267512   0.506650   0.398272  -0.077823
   56  CL 5  Y   -0.261761   0.373931   0.298133   0.192904   0.389498
   57  CL 5  Z    0.449358  -0.576068  -0.077003  -0.012416   0.203657
   58  CL 5  S    0.000000   0.000000   0.000002   0.000001   2.482340
   59  CL 5  X   -0.272804   0.359670  -0.681191  -0.535477   0.440689
   60  CL 5  Y    0.260545  -0.502750  -0.400840  -0.259361  -1.163436
   61  CL 5  Z   -0.447271   0.774523   0.103530   0.016693  -0.882011

                     56         57         58         59         60
                    0.8090     0.8090     0.8813     0.8813     0.8813
                     A          A          A          A          A   
    1  C  1  S    0.000000   0.000000   0.000000   0.000000   0.000000
    2  C  1  S    0.000000   0.000000   0.000008  -0.000002  -0.000005
    3  C  1  X    0.021364   0.384413  -1.067189   0.044719   0.137838
    4  C  1  Y    0.165400   0.039527  -0.101282   0.502482  -0.947183
    5  C  1  Z   -0.351112   0.042012  -0.103639  -0.951531  -0.493709
    6  C  1  S    0.000001   0.000003  -0.000019   0.000005   0.000010
    7  C  1  X   -0.086541  -1.557101   2.076572  -0.087018  -0.268212
    8  C  1  Y   -0.669977  -0.160111   0.197078  -0.977753   1.843081
    9  C  1  Z    1.422235  -0.170174   0.201664   1.851535   0.960686
   10  CL 2  S   -0.002515  -0.053613  -0.019265   0.000633   0.002654
   11  CL 2  S    0.001118   0.023824   0.024152  -0.000793  -0.003327
   12  CL 2  X   -0.005637  -0.104123  -0.085140   0.002723   0.011797
   13  CL 2  Y   -0.037314  -0.008717   0.001843  -0.003785   0.006918
   14  CL 2  Z    0.079229  -0.009550   0.000398   0.007113   0.003736
   15  CL 2  S   -0.064126  -1.367033  -0.457525   0.015021   0.063028
   16  CL 2  X    0.024248   0.449845   0.453014  -0.014832  -0.062447
   17  CL 2  Y    0.156085   0.036297  -0.005780   0.002337  -0.003339
   18  CL 2  Z   -0.331424   0.040008   0.001399  -0.004154  -0.002379
   19  CL 2  S    0.121767   2.595850  -0.337574   0.011086   0.046507
   20  CL 2  X   -0.077494  -1.590822  -0.018485   0.004448  -0.001099
   21  CL 2  Y   -0.141760  -0.019330  -0.044945   0.199655  -0.375405
   22  CL 2  Z    0.302157  -0.041259  -0.039516  -0.377838  -0.196240
   23  CL 3  S    0.036520   0.021609   0.007701  -0.013597   0.011593
   24  CL 3  S   -0.016229  -0.009603  -0.009654   0.017046  -0.014534
   25  CL 3  X   -0.008906  -0.089161  -0.004877   0.022335  -0.020357
   26  CL 3  Y   -0.047829  -0.015136  -0.032268   0.054558  -0.042647
   27  CL 3  Z    0.082857  -0.007335   0.012169  -0.013021   0.020840
   28  CL 3  S    0.931201   0.551007   0.182888  -0.322903   0.275314
   29  CL 3  X    0.040611   0.374959   0.058519  -0.111225   0.095590
   30  CL 3  Y    0.208708   0.068424   0.161878  -0.284421   0.240275
   31  CL 3  Z   -0.349584   0.028920  -0.056457   0.094804  -0.086445
   32  CL 3  S   -1.768245  -1.046301   0.134952  -0.238282   0.203172
   33  CL 3  X   -0.314439  -0.506230  -0.367827  -0.080914   0.138854
   34  CL 3  Y   -0.903901  -0.484608   0.103531  -0.054295  -0.159664
   35  CL 3  Z    0.565157   0.119303  -0.090751  -0.290207  -0.270691
   36  CL 4  S   -0.048681   0.021997   0.007714   0.017332   0.004318
   37  CL 4  S    0.021633  -0.009775  -0.009671  -0.021729  -0.005414
   38  CL 4  X    0.000348  -0.089079  -0.004248  -0.027767  -0.007864
   39  CL 4  Y   -0.040214  -0.007614   0.007583   0.011591   0.010890
   40  CL 4  Z    0.093861  -0.016091  -0.033787  -0.070550  -0.015663
   41  CL 4  S   -1.241290   0.560896   0.183209   0.411620   0.102558
   42  CL 4  X   -0.005701   0.374552   0.055427   0.135028   0.034189
   43  CL 4  Y    0.170597   0.030776  -0.033994  -0.073239  -0.022861
   44  CL 4  Z   -0.404657   0.072742   0.169420   0.377559   0.092969
   45  CL 4  S    2.357070  -1.065081   0.135183   0.303746   0.075686
   46  CL 4  X    0.356231  -0.500342  -0.370566   0.137160   0.084478
   47  CL 4  Y   -0.351941   0.060621  -0.069930   0.132729  -0.392697
   48  CL 4  Z    1.362784  -0.515338   0.109279  -0.039801  -0.111801
   49  CL 5  S    0.014676   0.010006   0.003849  -0.004368  -0.018565
   50  CL 5  S   -0.006522  -0.004446  -0.004826   0.005476   0.023275
   51  CL 5  X   -0.006380  -0.087806   0.001869   0.006580   0.028356
   52  CL 5  Y   -0.033918  -0.006597   0.014073  -0.018861  -0.057163
   53  CL 5  Z    0.082166  -0.007479   0.012247  -0.005921  -0.051654
   54  CL 5  S    0.374216   0.255135   0.091418  -0.103736  -0.440894
   55  CL 5  X    0.027967   0.368180   0.025361  -0.033789  -0.143835
   56  CL 5  Y    0.139085   0.025690  -0.065891   0.076438   0.311621
   57  CL 5  Z   -0.346126   0.029644  -0.056839   0.059904   0.269865
   58  CL 5  S   -0.710593  -0.484473   0.067456  -0.076555  -0.325375
   59  CL 5  X   -0.131342  -0.408058  -0.397193  -0.012339  -0.073179
   60  CL 5  Y    0.104425   0.134273  -0.098179   0.265284  -0.096476
   61  CL 5  Z    0.515084   0.108832  -0.091090  -0.321114   0.044861

                     61
                    1.3647
                     A   
    1  C  1  S   -0.071679
    2  C  1  S   -2.556436
    3  C  1  X   -0.000005
    4  C  1  Y    0.000001
    5  C  1  Z    0.000002
    6  C  1  S    4.956667
    7  C  1  X    0.000014
    8  C  1  Y   -0.000003
    9  C  1  Z   -0.000005
   10  CL 2  S   -0.004155
   11  CL 2  S    0.040283
   12  CL 2  X   -0.066615
   13  CL 2  Y    0.000778
   14  CL 2  Z   -0.000269
   15  CL 2  S    0.005370
   16  CL 2  X    0.312052
   17  CL 2  Y   -0.003644
   18  CL 2  Z    0.001258
   19  CL 2  S   -0.866820
   20  CL 2  X    0.474535
   21  CL 2  Y   -0.005543
   22  CL 2  Z    0.001912
   23  CL 3  S   -0.004155
   24  CL 3  S    0.040283
   25  CL 3  X    0.022981
   26  CL 3  Y    0.059110
   27  CL 3  Z   -0.020398
   28  CL 3  S    0.005373
   29  CL 3  X   -0.107651
   30  CL 3  Y   -0.276894
   31  CL 3  Z    0.095552
   32  CL 3  S   -0.866819
   33  CL 3  X   -0.163704
   34  CL 3  Y   -0.421076
   35  CL 3  Z    0.145307
   36  CL 4  S   -0.004155
   37  CL 4  S    0.040283
   38  CL 4  X    0.021817
   39  CL 4  Y   -0.012200
   40  CL 4  Z    0.061752
   41  CL 4  S    0.005373
   42  CL 4  X   -0.102199
   43  CL 4  Y    0.057149
   44  CL 4  Z   -0.289273
   45  CL 4  S   -0.866819
   46  CL 4  X   -0.155413
   47  CL 4  Y    0.086907
   48  CL 4  Z   -0.439900
   49  CL 5  S   -0.004155
   50  CL 5  S    0.040283
   51  CL 5  X    0.021817
   52  CL 5  Y   -0.047688
   53  CL 5  Z   -0.041086
   54  CL 5  S    0.005374
   55  CL 5  X   -0.102199
   56  CL 5  Y    0.223388
   57  CL 5  Z    0.192462
   58  CL 5  S   -0.866818
   59  CL 5  X   -0.155414
   60  CL 5  Y    0.339711
   61  CL 5  Z    0.292680
 ...... END OF RHF CALCULATION ......
 CPU     0: STEP CPU TIME=     0.08 TOTAL CPU TIME=        0.2 (    0.0 MIN)
 TOTAL WALL CLOCK TIME=        0.2 SECONDS, CPU UTILIZATION IS  75.00%

     ----------------------------------------------------------------
     PROPERTY VALUES FOR THE RHF   SELF-CONSISTENT FIELD WAVEFUNCTION
     ----------------------------------------------------------------

          -----------------
          ENERGY COMPONENTS
          -----------------

         WAVEFUNCTION NORMALIZATION =       1.0000000000

                ONE ELECTRON ENERGY =   -3440.5264753079
                TWO ELECTRON ENERGY =    1138.2484994052
           NUCLEAR REPULSION ENERGY =     426.6518936462
                                      ------------------
                       TOTAL ENERGY =   -1875.6260822566

 ELECTRON-ELECTRON POTENTIAL ENERGY =    1138.2484994052
  NUCLEUS-ELECTRON POTENTIAL ENERGY =   -5316.7357379883
   NUCLEUS-NUCLEUS POTENTIAL ENERGY =     426.6518936462
                                      ------------------
             TOTAL POTENTIAL ENERGY =   -3751.8353449370
               TOTAL KINETIC ENERGY =    1876.2092626804
                 VIRIAL RATIO (V/T) =       1.9996891709

          ---------------------------------------
          MULLIKEN AND LOWDIN POPULATION ANALYSES
          ---------------------------------------

     ATOMIC MULLIKEN POPULATION IN EACH MOLECULAR ORBITAL

                      1          2          3          4          5

                  2.000000   2.000000   2.000000   2.000000   2.000000

    1            -0.000014  -0.000014  -0.000014   0.000008   1.998290
    2             0.018175   0.008256   1.452284   0.521294   0.000427
    3             0.410624   0.917246   0.177213   0.494925   0.000427
    4             0.156833   1.047301   0.296747   0.499128   0.000427
    5             1.414382   0.027211   0.073771   0.484644   0.000427

[...]
    5 CL                0.899       0.899       0.000

          ---------------------
          ELECTROSTATIC MOMENTS
          ---------------------

 POINT   1           X           Y           Z (BOHR)    CHARGE
                -7.284560    1.846980    0.000000        0.00 (A.U.)
         DX          DY          DZ         /D/  (DEBYE)
    -0.000018    0.000004    0.000007    0.000019
 ...... END OF PROPERTY EVALUATION ......
 CPU     0: STEP CPU TIME=     0.01 TOTAL CPU TIME=        0.2 (    0.0 MIN)
 TOTAL WALL CLOCK TIME=        0.2 SECONDS, CPU UTILIZATION IS  76.19%

     ---------------------------------------------
     1ST AND 2ND INTEGRAL DERIVATIVE CONTRIBUTIONS
     ---------------------------------------------
 ...... END OF 1-ELECTRON GRAD+HESS+FOCKDER ......
 CPU     0: STEP CPU TIME=     0.02 TOTAL CPU TIME=        0.2 (    0.0 MIN)
 TOTAL WALL CLOCK TIME=        0.2 SECONDS, CPU UTILIZATION IS  75.00%

     ----------------------------------------------
     TWO ELECTRON INTEGRAL DERIVATIVE CONTRIBUTIONS
     ----------------------------------------------

      51373 WORDS REQUIRED,   1000000 WORDS AVAILABLE
 THE COARSE/FINE SCHWARZ SCREENINGS SKIPPED          0/         0 BLOCKS.
 THE NUMBER OF DERIVATIVE INTEGRAL BLOCKS COMPUTED WAS     17904
 CPU     0: STEP CPU TIME=     2.90 TOTAL CPU TIME=        3.1 (    0.1 MIN)
 TOTAL WALL CLOCK TIME=        3.2 SECONDS, CPU UTILIZATION IS  96.25%
 ...... END OF 2-ELECTRON GRAD+HESS+FOCKDER ......
 CPU     0: STEP CPU TIME=     0.00 TOTAL CPU TIME=        3.1 (    0.1 MIN)
 TOTAL WALL CLOCK TIME=        3.2 SECONDS, CPU UTILIZATION IS  95.95%

     -------------------------------------------
     COUPLED-PERTURBED CLOSED SHELL HARTREE-FOCK
     -------------------------------------------
 THE CPHF HAS     888 INDEPENDENT ORBITAL ROTATIONS.
 SOLVING FOR   15 NUCLEAR RESPONSES AND 0 ELECTRIC FIELD RESPONSES
           -FA- WILL USE     42199 WORDS,
           -TA- WILL USE     87551 WORDS,
          -FCK- WILL USE    134471 WORDS,
 -WXY- AND -YA- WILL USE    165764 WORDS,
               THERE ARE   1000000 WORDS OF REPLICATED MEMORY AVAILABLE.
        TIME FOR -FA-   =        0.000
        TIME FOR -TA-   =        0.000
        TIME FOR -FCK-  =        0.020
 PRECONDITIONED CONJUGATE GRADIENT SOLVER     CONV. TOLERANCE=5.00E-05
 ITER    RESPONSE ERROR        IMPROVED
   1       3.79109E-01            15
   2       2.25149E-01            15
   3       5.18028E-02            15
   4       9.25202E-03            15
   5       3.31339E-03            15
   6       7.60813E-04            15
   7       2.34216E-04            15
   8       6.75429E-05            12
   9       1.37525E-05             6
 THE CPHF HAS CONVERGED AFTER  9 ITERATIONS.
 IT REQUIRED   123 FOCK-LIKE BUILDS TO FIND THE  15 SYMMETRY UNIQUE RESPONSES.
        TIME FOR -YA-   =        0.200
 ...... DONE WITH CPHF CONTRIBUTIONS ......
 CPU     0: STEP CPU TIME=     0.23 TOTAL CPU TIME=        3.3 (    0.1 MIN)
 TOTAL WALL CLOCK TIME=        3.7 SECONDS, CPU UTILIZATION IS  89.46%

          ---------------
          ENERGY GRADIENT
          ---------------

 UNITS ARE HARTREE/BOHR    E'X               E'Y               E'Z 
    1 C               -0.000001298       0.000000317       0.000000488
    2 CL              -0.000051965       0.000000394      -0.000000436
    3 CL               0.000018441       0.000045404      -0.000015969
    4 CL               0.000017521      -0.000009562       0.000047585
    5 CL               0.000017301      -0.000036553      -0.000031668

          -------------------------------
          CARTESIAN FORCE CONSTANT MATRIX
          -------------------------------

                                   1                          2
                               C                          CL        
                          X        Y        Z        X        Y        Z
  1   C            X 0.267711 0.000000 0.000000-0.137172 0.001231-0.000425
                   Y 0.000000 0.267712 0.000000 0.001231-0.031811 0.000005
                   Z 0.000000 0.000000 0.267712-0.000425 0.000005-0.031799
  2   CL           X-0.137172 0.001231-0.000425 0.212300-0.002019 0.000697
                   Y 0.001231-0.031811 0.000005-0.002019 0.039457-0.000008
                   Z-0.000425 0.000005-0.031799 0.000697-0.000008 0.039436
  3   CL           X-0.044338-0.032257 0.011131-0.025561-0.027891 0.009625
                   Y-0.032257-0.114768 0.028632-0.011362-0.008135 0.004581
                   Z 0.011132 0.028632-0.041678 0.003921 0.004581 0.003559
  4   CL           X-0.043100 0.006320-0.031992-0.024783 0.005978-0.029178
                   Y 0.006320-0.035332 0.017890 0.002653 0.004487 0.003220
                   Z-0.031993 0.017890-0.122352-0.012012 0.003033-0.009842
  5   CL           X-0.043100 0.024706 0.021286-0.024783 0.022701 0.019281
                   Y 0.024706-0.085801-0.046527 0.009497-0.003998-0.007798
                   Z 0.021286-0.046527-0.071883 0.007819-0.007611-0.001356

                                   3                          4
                               CL                         CL        
                          X        Y        Z        X        Y        Z
  3   CL           X 0.060007 0.052917-0.018261 0.004946 0.002767-0.003706
                   Y 0.052917 0.175545-0.046970-0.003793-0.014402 0.014985
                   Z-0.018261-0.046970 0.055642 0.004084 0.029199-0.020681
  4   CL           X 0.004946-0.003793 0.004084 0.057976-0.010369 0.052483
                   Y 0.002767-0.014402 0.029199-0.010369 0.045231-0.029348
                   Z-0.003706 0.014985-0.020681 0.052483-0.029348 0.187987
  5   CL           X 0.004946-0.005505-0.000876 0.004961-0.001372-0.004772
                   Y 0.004463-0.038239-0.015441 0.001863 0.000014-0.006560
                   Z 0.001210-0.001228 0.003157 0.004603-0.020961-0.035111

                                   5
                               CL        
                          X        Y        Z
  5   CL           X 0.057976-0.040530-0.034919
                   Y-0.040530 0.128025 0.076326
                   Z-0.034919 0.076326 0.105193

          ------------------------          ----------------
          DIPOLE DERIVATIVE TENSOR          (DEBYE/ANGSTROM)
          ------------------------          ----------------

        ATOM                 MU-X           MU-Y           MU-Z
     C          D/DX     6.147247701   -0.000000848    0.000000340
                D/DY    -0.000001062    6.147250528   -0.000000013
                D/DZ     0.000000009   -0.000000006    6.147249482
     CL         D/DX    -2.858303175    0.023149666   -0.007990995
                D/DY     0.023155600   -0.876143076    0.000092734
                D/DZ    -0.007988162    0.000092718   -0.875904343
     CL         D/DX    -1.111814256   -0.606833117    0.209410222
                D/DY    -0.606822238   -2.436752809    0.538618484
                D/DZ     0.209412303    0.538633387   -1.061765723
     CL         D/DX    -1.088520895    0.118903740   -0.601852430
                D/DY     0.118904902   -0.942382890    0.336556237
                D/DZ    -0.601831133    0.336541334   -2.579437360
     CL         D/DX    -1.088520620    0.464778143    0.400433694
                D/DY     0.464785673   -1.891790102   -0.875288309
                D/DZ     0.400438774   -0.875285273   -1.629997396

          --------------------------------------------------------
          NORMAL COORDINATE ANALYSIS IN THE HARMONIC APPROXIMATION
          --------------------------------------------------------

          ATOMIC WEIGHTS (AMU)

    1     C                12.00000
    2     CL               34.96885
    3     CL               34.96885
    4     CL               34.96885
    5     CL               34.96885

 MODES 1 TO 6 ARE TAKEN AS ROTATIONS AND TRANSLATIONS.

 ANALYZING SYMMETRY OF NORMAL MODES...

     FREQUENCIES IN CM**-1, IR INTENSITIES IN DEBYE**2/AMU-ANGSTROM**2,
     REDUCED MASSES IN AMU.

                          1           2           3           4           5
       FREQUENCY:         3.37        3.34        3.23        0.09        0.11  
        SYMMETRY:         A           A           A           A           A   
    REDUCED MASS:     34.96874    34.96687    34.95477    30.37510    30.37692
    IR INTENSITY:      0.00000     0.00000     0.00000     0.00000     0.00000

  1   C            X -0.00007552  0.00001989  0.00004992  0.08111664 -0.00141053
                   Y  0.00016573 -0.00066994 -0.00404260  0.00200408  0.03440234
                   Z -0.00031668 -0.00142127  0.00109259  0.00061837  0.07345613
  2   CL           X  0.00099239 -0.00025164 -0.00059912  0.08111718 -0.00141877
                   Y  0.07292951 -0.05399470 -0.05478259  0.00203921  0.03310691
                   Z -0.05442516 -0.08857966  0.01507971  0.00056828  0.07174978
  3   CL           X  0.08105921 -0.02060867 -0.04925710  0.08116342 -0.00203747
                   Y -0.00966209  0.01220368  0.04082724  0.00201937  0.03502810
                   Z  0.06261148  0.01264433  0.07556906  0.00071525  0.07456347
  4   CL           X -0.06406163 -0.07082976  0.02141151  0.08106317 -0.00276116
                   Y -0.06963085  0.03341291 -0.06977982  0.00190992  0.03428785
                   Z  0.00849996  0.03034256 -0.01944123  0.00061871  0.07391054
  5   CL           X -0.01829201  0.09176962  0.02864422  0.08112358  0.00057486
                   Y  0.00702674  0.00569788  0.06756379  0.00204779  0.03518623
                   Z -0.01795324  0.03990716 -0.06683689  0.00057124  0.07360046

 TRANS. SAYVETZ    X -0.01146788  0.00302021  0.00757542 12.31964985 -0.21423952
                   Y  0.02518393 -0.10176406 -0.61400587  0.30436916  5.22485965
                   Z -0.04810455 -0.21587454  0.16594784  0.09391504 11.15616980
               TOTAL  0.05549585  0.23867732  0.63608119 12.32376699 12.32092454

   ROT. SAYVETZ    X-15.95342073  5.76783408-28.58296107 -0.02868489 -0.18697083
                   Y 17.57024891 27.93484566 -4.15999508  0.01642563  0.55039240
                   Z 23.31319307-17.10889946-16.41693873  0.01116889 -0.41690342
               TOTAL 33.26755553 33.26165890 33.22359252  0.03489081  0.71533094

                          6           7           8           9          10
       FREQUENCY:         0.16      227.68      227.68      326.12      326.12  
        SYMMETRY:         A           A           A           A           A   
    REDUCED MASS:     30.38542    34.96885    34.96885    31.67799    31.67800
    IR INTENSITY:      0.00000     0.00000     0.00000     0.02023     0.02023

  1   C            X -0.00155159 -0.00000025 -0.00000014 -0.01300274  0.02407995
                   Y  0.07334867 -0.00000021  0.00000037 -0.01849951  0.05877205
                   Z -0.03442173  0.00000079 -0.00000014  0.06333678  0.02210972
  2   CL           X -0.00158844 -0.00048517  0.00092506 -0.02008748  0.03791368
                   Y  0.07050665 -0.01265350  0.08359468  0.01792053 -0.05643836
                   Z -0.03352307  0.08359854  0.01265869 -0.06018850 -0.02071989
  3   CL           X -0.00434844  0.03682684 -0.07030086 -0.02363188  0.02507965
                   Y  0.07566746 -0.03722759  0.01162488 -0.07495381  0.06750888
                   Z -0.03085255 -0.06638663 -0.04551739 -0.02813700 -0.06349185
  4   CL           X -0.00024181 -0.07985442  0.00237494  0.06133632 -0.00790593
                   Y  0.07025044 -0.00783057 -0.08275372 -0.00986288 -0.06407542
                   Z -0.03549642  0.02666638 -0.01718846  0.07865445  0.02128608
  5   CL           X -0.00002773  0.04351285  0.06700087 -0.01315503 -0.06335049
                   Y  0.07696906  0.05771188 -0.01246594  0.07324438  0.03283619
                   Z -0.03781478 -0.04387883  0.05004751 -0.01206363  0.05533850

 TRANS. SAYVETZ    X -0.23565034  0.00000062 -0.00000121 -0.00000455  0.00000846
                   Y 11.13982081  0.00000536  0.00000081 -0.00000373 -0.00001239
                   Z -5.22781032 -0.00000958  0.00001063  0.00000470  0.00000241
               TOTAL 12.30776745  0.00001099  0.00001073  0.00000753  0.00001520

   ROT. SAYVETZ    X -1.39820478 -0.00007646  0.00002818  0.00001970 -0.00002884
                   Y -0.27241986  0.00005440  0.00000690  0.00003705  0.00001383
                   Z -0.91863446 -0.00002294 -0.00005051  0.00000755 -0.00002055
               TOTAL  1.69501577  0.00009661  0.00005825  0.00004264  0.00003802

                         11          12          13          14          15
       FREQUENCY:       326.12      453.28      820.68      820.68      820.68  
        SYMMETRY:         A           A           A           A           A   
    REDUCED MASS:     31.67800    34.96885    13.15136    13.15137    13.15137
    IR INTENSITY:      0.02023     0.00000     3.49890     3.49890     3.49890

  1   C            X  0.06143228  0.00000011  0.26720627 -0.01928389 -0.02133351
                   Y -0.02695279 -0.00000010  0.01031255 -0.12185446  0.23931413
                   Z  0.00473941 -0.00000022  0.02684467  0.23875875  0.12041492
  2   CL           X  0.10152978  0.08454755 -0.05177609  0.00335030  0.00450804
                   Y  0.02369122 -0.00098732  0.00017774  0.00384117 -0.00765134
                   Z -0.00384995  0.00034104 -0.00102770 -0.00757793 -0.00381197
  3   CL           X -0.06197616 -0.02916733 -0.01369675  0.01111289 -0.00871714
                   Y  0.01597503 -0.07502138 -0.01371197  0.03088080 -0.03177289
                   Z -0.00118772  0.02588893  0.00376539 -0.01690892  0.00451186
  4   CL           X -0.03330066 -0.02769002 -0.01435616 -0.01197831 -0.00254809
                   Y  0.01160461  0.01548399  0.00295073  0.01091422 -0.00580260
                   Z  0.06612758 -0.07837548 -0.01744827 -0.04322888 -0.01295921
  5   CL           X -0.02733360 -0.02769003 -0.01186611  0.00413263  0.01407806
                   Y -0.04202160  0.06052466  0.00704457 -0.00382015 -0.03689701
                   Z -0.06271654  0.05214541  0.00549844 -0.01421744 -0.02906260

 TRANS. SAYVETZ    X  0.00002174  0.00000734  0.00000253 -0.00000022 -0.00000016
                   Y  0.00000281 -0.00000290 -0.00000183  0.00000540 -0.00000662
                   Z -0.00000845 -0.00000612 -0.00000205 -0.00000381 -0.00000073
               TOTAL  0.00002350  0.00000999  0.00000374  0.00000661  0.00000666

   ROT. SAYVETZ    X  0.00003087 -0.00002745  0.00000012 -0.00001064  0.00001483
                   Y  0.00004234 -0.00003591  0.00000215 -0.00000015  0.00000202
                   Z  0.00000196  0.00001438 -0.00000163 -0.00000405  0.00000477
               TOTAL  0.00005244  0.00004744  0.00000270  0.00001138  0.00001571

 REFERENCE ON SAYVETZ CONDITIONS - A. SAYVETZ, J.CHEM.PHYS., 7, 383-389(1939).

 NOTE - THE MODES J,K ARE ORTHONORMALIZED ACCORDING TO
 SUM ON I   M(I) * (X(I,J)*X(I,K) + Y(I,J)*Y(I,K) + Z(I,J)*Z(I,K)) = DELTA(J,K)

  MODE FREQ(CM**-1)  SYMMETRY  RED. MASS  IR INTENS.
     1       3.367    A       34.968743    0.000000
     2       3.342    A       34.966867    0.000000
     3       3.233    A       34.954769    0.000000
     4       0.087    A       30.375102    0.000000
     5       0.111    A       30.376917    0.000000
     6       0.163    A       30.385419    0.000000
     7     227.683    A       34.968850    0.000000
     8     227.683    A       34.968850    0.000000
     9     326.123    A       31.677992    0.020229
    10     326.124    A       31.678001    0.020229
    11     326.124    A       31.677999    0.020229
    12     453.283    A       34.968850    0.000000
    13     820.676    A       13.151365    3.498903
    14     820.678    A       13.151371    3.498895
    15     820.679    A       13.151371    3.498897

     -------------------------------
     THERMOCHEMISTRY AT T=  298.15 K
     -------------------------------

 USING IDEAL GAS, RIGID ROTOR, HARMONIC NORMAL MODE APPROXIMATIONS.
 P=  1.01325E+05 PASCAL.
 ALL FREQUENCIES ARE SCALED BY   1.00000
 THE MOMENTS OF INERTIA ARE (IN AMU*BOHR**2)
   1106.75192  1106.75333  1106.75605
 THE ROTATIONAL SYMMETRY NUMBER IS  1.0
 THE ROTATIONAL CONSTANTS ARE (IN GHZ)
      1.62917     1.62917     1.62917
 THE HARMONIC ZERO POINT ENERGY IS (SCALED BY   1.000)
        0.009908 HARTREE/MOLECULE     2174.527021 CM**-1/MOLECULE 
        6.217291 KCAL/MOL               26.013145 KJ/MOL

               Q               LN Q
 ELEC.     1.00000E+00       0.000000
 TRANS.    7.35673E+07      18.113711
 ROT.      4.16791E+05      12.940339
 VIB.      5.38883E+00       1.684328
 TOT.      1.65233E+14      32.738379

              E         H         G         CV        CP        S
           KJ/MOL    KJ/MOL    KJ/MOL   J/MOL-K   J/MOL-K   J/MOL-K
 ELEC.      0.000     0.000     0.000     0.000     0.000     0.000
 TRANS.     3.718     6.197   -44.903    12.472    20.786   171.391
 ROT.       3.718     3.718   -32.078    12.472    12.472   120.063
 VIB.      33.054    33.054    21.838    48.838    48.838    37.619
 TOTAL     40.491    42.970   -55.143    73.782    82.096   329.072
 VIB. THERMAL CORRECTION E(T)-E(0) = H(T)-H(0) =  7040.665 J/MOL

              E         H         G         CV        CP        S
         KCAL/MOL  KCAL/MOL  KCAL/MOL CAL/MOL-K CAL/MOL-K CAL/MOL-K
 ELEC.      0.000     0.000     0.000     0.000     0.000     0.000
 TRANS.     0.889     1.481   -10.732     2.981     4.968    40.963
 ROT.       0.889     0.889    -7.667     2.981     2.981    28.696
 VIB.       7.900     7.900     5.219    11.673    11.673     8.991
 TOTAL      9.677    10.270   -13.180    17.634    19.621    78.650
 VIB. THERMAL CORRECTION E(T)-E(0) = H(T)-H(0) =  1682.759 CAL/MOL
 ......END OF NORMAL COORDINATE ANALYSIS......
 CPU     0: STEP CPU TIME=     0.00 TOTAL CPU TIME=        3.3 (    0.1 MIN)
 TOTAL WALL CLOCK TIME=        3.7 SECONDS, CPU UTILIZATION IS  89.46%
                580000  WORDS OF DYNAMIC MEMORY USED
 EXECUTION OF GAMESS TERMINATED NORMALLY Sat Nov 14 12:03:44 2015
 DDI: 263624 bytes (0.3 MB / 0 MWords) used by master data server.

 ----------------------------------------
 CPU timing information for all processes
 ========================================
 0: 3.248 + 0.72 = 3.320
 1: 3.48 + 0.36 = 3.84
 2: 3.256 + 0.68 = 3.324
 3: 3.292 + 0.44 = 3.336
 4: 3.116 + 0.56 = 3.172
 5: 3.292 + 0.32 = 3.324
 6: 3.296 + 0.60 = 3.356
 7: 3.464 + 0.40 = 3.504
 ----------------------------------------
 ddikick.x: exited gracefully.
unset echo
----- accounting info -----
Files used on the master node GET-04 were:
-rw-r--r-- 1 carlos carlos   71363 Nov 14 12:03 /home/carlos/scr/gamess/tetrachloromethane.dat
-rw-r--r-- 1 carlos carlos     471 Nov 14 12:03 /home/carlos/scr/gamess/tetrachloromethane.F05
-rw-r--r-- 1 carlos carlos 1980176 Nov 14 12:03 /home/carlos/scr/gamess/tetrachloromethane.F08
-rw-r--r-- 1 carlos carlos 1800160 Nov 14 12:03 /home/carlos/scr/gamess/tetrachloromethane.F08.001
-rw-r--r-- 1 carlos carlos 2160192 Nov 14 12:03 /home/carlos/scr/gamess/tetrachloromethane.F08.002
-rw-r--r-- 1 carlos carlos 2160192 Nov 14 12:03 /home/carlos/scr/gamess/tetrachloromethane.F08.003
-rw-r--r-- 1 carlos carlos 1620144 Nov 14 12:03 /home/carlos/scr/gamess/tetrachloromethane.F08.004
-rw-r--r-- 1 carlos carlos 1620144 Nov 14 12:03 /home/carlos/scr/gamess/tetrachloromethane.F08.005
-rw-r--r-- 1 carlos carlos 2340208 Nov 14 12:03 /home/carlos/scr/gamess/tetrachloromethane.F08.006
-rw-r--r-- 1 carlos carlos 2700240 Nov 14 12:03 /home/carlos/scr/gamess/tetrachloromethane.F08.007
-rw-r--r-- 1 carlos carlos 1865040 Nov 14 12:03 /home/carlos/scr/gamess/tetrachloromethane.F10
-rw-r--r-- 1 carlos carlos  227040 Nov 14 12:03 /home/carlos/scr/gamess/tetrachloromethane.F18
ls: No match.
ls: No match.
ls: No match.
Sat Nov 14 12:03:47 BRST 2015
0.0u 0.0s 0:06.80 2.0% 0+0k 0+16io 0pf+0w
rm: No match.
rm: No match.
rm: No match.
